default_name
 43958
  38.5321551  30.1161941  24.0670201  39.0215289  30.5581179  24.8320807
  38.2496543  30.8277039  23.4081973  39.0711275  29.3220566  23.7524506
  37.2393400  29.5344622  24.6077068  36.3982793  29.9975022  24.0916545
  37.1624259  28.0191207  24.4064477  37.0790720  27.8439590  23.3338482
  38.1010545  27.6012857  24.7704401  35.9806328  27.3389207  25.1322673
  36.2452801  27.3166219  26.1894169  35.1191193  27.9908167  24.9876018
  35.5446724  25.6126516  24.5723812  34.6279434  25.9654813  23.0646826
  35.2699292  26.5012302  22.3654498  34.2989153  25.0302888  22.6116305
  33.7588951  26.5789534  23.3023972  37.1058423  29.8240425  26.1264200
  36.0014029  30.0373922  26.6303242  37.9129458  32.2933127  27.6600227
  38.6963846  31.8988676  28.1607582  37.5954553  33.7137755  27.8695302
  37.7479380  33.9826780  28.9147764  38.5268799  34.5973593  26.9872350
  38.5623297  34.1926819  25.9757615  38.1412136  35.6164015  26.9569945
  39.7960760  34.6025922  27.5243447  40.3710526  35.1468568  26.9814101
  36.1796091  34.0681590  27.4688748  35.7608890  35.2266749  27.5651948
  35.4551124  33.0883714  26.9141120  35.7926716  32.1367574  26.9382776
  34.1550027  33.3479485  26.2937617  33.9924934  34.4225771  26.2109165
  34.1000061  32.7280273  24.8747768  34.8480838  33.2697323  24.2959551
  34.4185281  31.6933125  25.0013040  32.7384753  32.7628459  24.1234262
  32.8376242  32.1331442  23.2392621  31.9892000  32.3364113  24.7903888
  32.3098079  34.1525793  23.7068383  33.0950777  35.1007502  23.8935821
  31.1793555  34.2631377  23.1930425  33.0714045  32.6750095  27.1670602
  32.9799734  31.4127409  27.2302994  32.3011549  33.4745768  27.8851421
  32.5000109  34.4613856  27.9673859  31.1301333  32.9222553  28.6343940
  31.4753486  32.2085129  29.3823895  30.3588011  34.0535580  29.3503777
  30.0596777  34.7510764  28.5680143  29.4699977  33.6293489  29.8174700
  31.1914826  34.7998296  30.4133445  32.0543827  35.2635876  29.9353983
  30.3156969  35.9049110  31.0938330  29.4527882  35.4418356  31.5724232
  30.9087087  36.4287138  31.8435453  29.9750079  36.6146303  30.3399565
  31.7236630  33.8369559  31.4659291  32.3570545  33.0894772  30.9882366
  32.3068564  34.3893555  32.2027068  30.8886005  33.3417463  31.9614460
  30.1560743  32.1609949  27.7299949  29.8673265  32.6007572  26.6139740
  29.6601832  31.0250605  28.2438180  30.0890148  30.6198329  29.0635700
  28.5240059  30.3084196  27.6184095  28.6489000  30.2814526  26.5359246
  28.3847154  28.8485952  28.1394633  27.5965171  28.3487231  27.5764610
  29.7221094  28.0665790  27.9667668  30.5107337  28.5656282  28.5299020
  29.5992633  27.0491881  28.3381476  29.9928165  28.0373309  26.9113224
  28.0038628  28.8437052  29.5207071  27.9221567  27.9375192  29.8268955
  27.2224717  31.0556776  27.8686298  27.1616414  31.9242589  28.7622860
  26.1832963  30.7842327  27.0527216  26.1088483  30.0269822  25.7829322
  25.9433183  28.9696949  25.9899194  27.0370943  30.1463036  25.2241651
  24.9179572  30.6815712  25.0816693  24.4610892  29.9966643  24.3673351
  25.2216629  31.5931594  24.5670129  23.9695040  30.9975813  26.2362463
  23.3999404  30.1236486  26.5523758  23.2832326  31.8050755  25.9811302
  24.9116222  31.4468010  27.3697029  25.0694095  32.5217929  27.2825607
  24.3883683  31.1167213  28.7863097  23.8850972  32.0269617  29.4463322
  24.5996484  29.8948374  29.2929550  25.0097437  29.1684274  28.7235257
  24.2012681  29.5604390  30.6719727  23.1592082  29.8461495  30.8154297
  24.3451997  28.0734069  30.9769385  25.3059538  27.7441566  30.5811545
  24.3389417  27.9539168  32.0603512  23.2205301  27.2256713  30.3619103
  22.2863898  27.4602573  30.8722554  23.1526379  27.5371386  29.3195678
  23.4723612  25.7199776  30.4278543  24.3134985  25.2701533  31.2408164
  22.7837659  24.9706953  29.6724118  25.0145425  30.3410042  31.7089335
  24.4819769  30.7985130  32.7347837  26.3149043  30.4738590  31.4586764
  26.7652439  30.0480748  30.6611795  27.1355005  31.2292124  32.3919418
  26.9604174  30.8692785  33.4057922  28.6293734  31.0700274  32.0652175
  28.7418298  31.2435577  30.9950118  29.1606314  31.8459668  32.6163826
  29.2125007  29.6984451  32.4241972  29.3306198  29.6336416  33.5058392
  28.5078491  28.9369880  32.0899093  30.5721378  29.4703527  31.7463625
  30.9519998  30.2481231  30.8326323  31.2744874  28.5340536  32.1209809
  26.7145522  32.7076454  32.3191995  26.6056469  33.3538605  33.3521795
  26.4533173  33.2558659  31.1267530  26.4583705  32.7209655  30.2700411
  26.1225731  34.6806600  31.0537387  26.9397002  35.2322531  31.5186556
  25.9087881  35.2265047  29.6246409  25.1094495  34.6392536  29.1726529
  25.5869584  36.2633906  29.7215597  27.1068258  35.1625982  28.7715275
  27.8929447  35.7782738  29.2086334  27.4483488  34.1294467  28.7077939
  26.7743368  35.6810685  27.3598078  25.8855898  35.1942476  26.9582692
  26.6280668  36.7612091  27.3588848  27.9119385  35.3619049  26.4998183
  27.8905888  34.4747577  26.0175182  28.9624930  36.1601580  26.3161223
  29.0259315  37.3815018  26.9149160  28.2682369  37.6901293  27.5071557
  29.8303932  37.9732803  26.7641207  29.9555865  35.7298577  25.5259324
  29.8919256  34.8212652  25.0894613  30.7632043  36.3160975  25.3704493
  24.8438290  34.9685611  31.7749928  24.7268921  36.0052698  32.4215737
  23.8707567  34.0543822  31.6695925  23.9705234  33.2536011  31.0622248
  22.6047595  34.2403055  32.3644074  22.1942525  35.2230266  32.1323679
  21.5987707  33.1739906  31.9252570  21.3670179  33.2892478  30.8664342
  22.0056148  32.1782079  32.1013103  20.4191625  33.3422498  32.6866597
  19.7732396  32.6815250  32.4262252  22.7572592  34.2359613  33.8865766
  22.1958676  35.0891311  34.5888121  23.4942123  33.2589934  34.3780823
  23.8119900  32.5360841  33.7483848  23.8272110  33.1440644  35.7694996
  22.9204740  33.0804642  36.3710660  24.6351848  31.9034112  35.9895275
  23.9836700  31.0590253  35.7644938  25.4553539  31.9301309  35.2720956
  25.1879620  31.7522725  37.3742915  26.0506546  31.0890718  37.3108317
  25.5138153  32.7417596  37.6949692  24.1980031  31.1976326  38.3770467
  23.0236978  30.8796779  38.0112082  24.6300023  31.0805789  39.5487382
  24.6000835  34.3516917  36.3229021  24.4011087  34.6742476  37.4884873
  25.4767874  34.9585365  35.5102284  25.5920152  34.5993393  34.5733190
  26.3510872  36.0564219  35.9482395  26.4163036  36.0551798  37.0362857
  27.7822734  35.9048644  35.3651947  27.5636923  35.8417110  34.2992054
  28.4311186  36.7604558  35.5524469  28.4939974  34.6071617  35.8239177
  27.7869039  33.7810341  35.7488657  29.7215169  34.3061883  34.9648806
  30.4293208  35.1317188  35.0397933  30.1951190  33.3892471  35.3156236
  29.4169052  34.1826200  33.9256294  28.7939082  34.6035562  37.3258033
  27.8612474  34.6898938  37.8832880  29.2926554  33.6724917  37.5950082
  29.4415715  35.4457138  37.5695280  25.8561673  37.4754592  35.6526512
  26.5296982  38.4431446  36.0560666  24.6896933  37.5930657  35.0126066
  24.1454299  36.7634813  34.8237514  24.1511740  38.8858696  34.5926671
  24.7440221  39.3088123  33.7816494  22.7207300  38.6708594  34.0922537
  22.6757076  37.6953753  33.6079986  22.0563255  38.6779847  34.9563232
  22.2898379  39.7312248  33.1215596  22.1180169  40.6764306  33.6365007
  23.0435526  39.8719165  32.3468196  20.9896259  39.2566202  32.4845286
  21.1979383  38.8954618  31.4774191  20.5759143  38.4447939  33.0827596
  19.9773136  40.4080416  32.4155253  19.0801401  40.0423846  31.9160503
  19.7298034  40.7045751  33.4347925  20.5160263  41.5861907  31.6713954
  20.7450351  41.3117322  30.7267647  19.8200885  42.3178439  31.6500841
  21.3471299  41.9254341  32.1342991  24.1094946  39.8677757  35.7652080
  24.5842870  41.0039474  35.6743883  23.5469729  39.3921436  36.8956705
  23.0404030  38.5183949  36.9026965  23.4482192  40.2639631  38.0739937
  23.1496384  41.2594919  37.7455562  22.4202289  39.7572793  39.1138814
  22.6470460  38.7229343  39.3723067  22.4990350  40.3796083  40.0052828
  20.9919720  39.8270189  38.5973821  20.6873587  40.5571482  37.6501551
  20.0844363  39.0389643  39.2216376  19.1209083  39.0460876  38.9188788
  20.3752845  38.4477209  39.9871044  24.7730942  40.6378377  38.6917582
  24.9440992  41.7950129  39.0806333  25.7095748  39.6882567  38.7944662
  25.4856861  38.7257448  38.5857940  27.0492540  39.9970104  39.2740493
  26.9827316  40.4688563  40.2543735  27.9041885  38.7287352  39.3973058
  28.0219176  38.2660015  38.4174504  28.8852251  38.9822214  39.7990668
  27.2540986  37.8204678  40.2743567  27.7819867  37.0230010  40.3579073
  27.7814709  41.0029205  38.4034844  28.5378277  41.8102267  38.8907114
  27.5650864  40.9225810  37.0932172  27.0085316  40.1758076  36.7024799
  28.2181958  41.8443834  36.1807729  29.2777740  41.9543176  36.4116572
  28.0568098  41.3409176  34.7239271  27.0407750  40.9672181  34.5969529
  28.3274254  42.5023400  33.6773421  29.3434938  42.8762572  33.8034035
  28.2059889  42.1158420  32.6654265  27.6189668  43.3139310  33.8431907
  29.0192444  40.1541720  34.4972898  30.0314035  40.5586435  34.4911686
  28.9029721  39.4802407  35.3460517  28.7684576  39.3814348  33.1914750
  28.8850150  40.0546488  32.3421829  29.4857741  38.5649496  33.1083586
  27.7565821  38.9762477  33.1970652  27.6791849  43.2761153  36.3846481
  28.4630982  44.2499091  36.4253110  26.3661897  43.3808334  36.5734355
  25.7787473  42.5660970  36.4675320  25.7188033  44.6810605  36.8318933
  26.0412198  45.4001601  36.0788710  24.1732035  44.5250200  36.7408913
  23.8341806  43.8147655  37.4950147  23.6991698  45.4912648  36.9134119
  23.9020887  44.1595734  35.7504143  26.1860275  45.2374405  38.1807713
  26.4656198  46.4422397  38.3289644  26.3618429  44.3466049  39.1610824
  26.2930010  43.3520553  38.9991216  26.6458061  44.8055418  40.5056874
  25.9987013  45.6428818  40.7668698  26.3858053  43.6465063  41.5062004
  25.3379936  43.3604028  41.4149058  27.0176817  42.8084760  41.2120279
  26.6881146  44.0289846  42.9685829  27.7318341  44.3374427  43.0286173
  26.0452867  44.8740686  43.2149658  26.4329437  42.8798088  43.9684187
  26.2609601  41.6975406  43.5379938  26.4198112  43.1688760  45.1966393
  28.1133356  45.2726079  40.6285025  28.3677861  46.3319287  41.2155930
  29.0606000  44.4477524  40.1269644  28.7741370  43.6607882  39.5624064
  30.5094022  44.6220695  40.4094740  30.6558554  45.3876957  41.1713580
  31.0927004  43.3073115  40.9207035  30.7639292  42.4677176  40.3082568
  32.1814761  43.3582414  40.9121299  30.6914571  42.9959140  42.3218064
  31.1844623  43.7647827  43.3909668  31.8686246  44.5891331  43.1897998
  30.8045178  43.4792541  44.6989292  31.1887537  44.0844973  45.5199920
  29.9387111  42.4269738  44.9589561  29.6457022  42.2071608  45.9855660
  29.4435866  41.6515041  43.9114737  28.7737548  40.8145903  44.1089600
  29.8166896  41.9581588  42.5876406  29.4149533  41.3747951  41.7591512
  31.3387992  45.0803098  39.2354559  32.4256079  45.6380845  39.4166198
  30.8183726  44.8980195  38.0378669  29.8662845  44.5829810  37.9179573
  31.6665323  45.0604710  36.8243268  32.6352320  45.4877927  37.0833946
  31.8930051  43.6707566  36.1977170  30.9637842  43.2082469  35.8649521
  32.5695194  43.7767813  35.3496679  32.5432151  42.6969987  37.1495219
  33.8564515  42.8155174  37.5399455  34.1547257  41.8352535  38.3958082
  35.1340933  41.7989904  38.8729070  33.1046782  41.0316280  38.5019422
  33.0559531  40.1743675  39.0337599  32.0668658  41.5629621  37.7550484
  31.0964609  41.0667846  37.7400982  31.1104398  46.0243828  35.8171420
  31.5444865  46.0138329  34.6215161  30.2449808  46.9264559  36.2720933
  29.9407095  46.9203433  37.2351515  29.6942718  47.9870094  35.3562616
  30.1555473  47.8411829  34.3795023  28.1519683  47.8398197  35.2049869
  27.6850363  48.0691097  36.1628496  27.5917236  48.8134911  34.1020654
  28.0578832  48.5844879  33.1437583  26.5121792  48.6873703  34.0197453
  27.8166556  49.8437273  34.3779631  27.8862881  46.5107542  34.7643397
  26.9393140  46.3908383  34.6620624  30.0268441  49.3214048  35.9735836
  30.0076386  49.4444910  37.1769161  30.2907262  50.3380122  35.1524254
  30.0886458  50.2851505  34.1642612  30.8711001  51.5814342  35.6795020
  30.7953259  51.5985333  36.7667302  32.3620066  51.6737694  35.2871819
  32.5150309  51.6650065  34.2080128  32.6914671  52.6304318  35.6925864
  33.1614745  50.5577833  35.9178992  33.6166911  50.6783128  37.2204845
  33.4206186  51.6095012  37.7520323  34.3036949  49.6558261  37.8477810
  34.6955557  49.7769859  38.8576658  34.5396661  48.4612141  37.1392454
  35.2076938  47.4521083  37.7905805  35.4487915  47.6819880  38.6909287
  34.0710741  48.2936829  35.8572981  34.2417371  47.3609147  35.3197869
  33.3644603  49.3426699  35.2397059  32.9715557  49.2153898  34.2309811
  30.1907316  52.7969513  35.1279171  29.8446260  52.8305362  33.9383298
  30.0383220  53.7896934  35.9933189  30.1262521  53.6444385  36.9889437
  29.7398217  55.1396617  35.5126743  29.0531764  55.0869646  34.6677836
  29.0944464  55.9663077  36.6119454  28.2754741  55.3758664  37.0227528
  29.8487694  56.1258758  37.3824224  28.5593503  57.3173381  36.1353407
  28.1582815  57.2235683  35.1261570  27.7640839  57.6239783  36.8147708
  29.6296547  58.3836498  36.1323503  30.4658410  58.4499705  37.0444276
  29.6305884  59.2150806  35.0929221  30.3231614  59.9481085  35.0371184
  28.9387212  59.1091255  34.3647775  31.0798357  55.7116228  35.1176440
  32.0160622  55.7531040  35.9503806  31.2074390  56.1014991  33.8525824
  30.4443164  56.0000139  33.1987904  32.4819358  56.6296585  33.3566664
  33.2192294  56.5907429  34.1585285  33.0108115  55.8270027  32.1670942
  32.2084668  55.9437591  31.4385956  33.9128884  56.3120640  31.7941697
  33.2883025  54.3288646  32.3887381  32.4437191  53.8990799  32.9273149
  33.4766660  53.5967572  31.0824124  34.3214217  54.0257073  30.5434427
  33.6703394  52.5425958  31.2807435  32.5744650  53.6924927  30.4782861
  34.4882350  54.1260681  33.3029583  34.2925578  54.5917307  34.2688611
  34.6626609  53.0592877  33.4431593  35.3700041  54.5817535  32.8524771
  32.3457818  58.0912985  32.9693067  31.4584271  58.4822372  32.2171594
  33.2495340  58.8756749  33.5212549  33.6954541  58.5873558  34.3803979
  33.5266825  60.1903659  33.0192129  32.6069672  60.6901650  32.7152000
  34.1849439  61.0118592  34.1401133  35.0877750  60.4933512  34.4628278
  34.4531465  61.9837732  33.7259265  33.2459198  61.2095016  35.3485529
  31.9971305  61.1845114  35.1773369  33.7558757  61.3836333  36.4840951
  34.3531574  60.1878645  31.7021195  34.9887634  59.1682990  31.3260168
  34.3175786  61.3292284  30.9602518  33.3789448  62.4642644  31.1265100
  33.6964438  63.0704054  31.9749720  32.3772662  62.0766215  31.3121766
  33.4742344  63.2007903  29.8256874  33.3209989  64.2674665  29.9894554
  32.7212977  62.8285347  29.1309835  34.8699522  62.9150058  29.3139033
  35.6349153  63.5447170  29.7682097  34.9181611  63.0109799  28.2292077
  35.0906950  61.4467984  29.7216489  34.6271408  60.7672365  29.0065185
  36.5951320  61.1236055  29.8364218  37.1828829  60.6796122  28.8767298
  37.2446483  61.3218471  30.9672095  36.8567918  61.6923710  31.8230008
  38.6794211  60.9557863  30.9473933  39.0459359  61.2458497  29.9626958
  39.1541223  61.5753924  31.7082129  39.0439641  59.4783426  31.2037315
  40.2163132  59.1722622  31.3787105  38.0689530  58.5722061  31.2222811
  37.1015985  58.8204392  31.0715992  38.3769988  57.2029477  31.6835924
  39.4269823  56.9819988  31.4917194  38.1133341  57.0548119  33.1765528
  38.3300499  56.0289070  33.4742987  38.7670106  57.7363595  33.7208871
  36.7760694  57.3543271  33.4722890  36.6272418  57.2561853  34.4155908
  37.7326290  56.1025912  30.8530166  36.9332953  56.3643417  29.9552269
  38.1401529  54.8524867  31.1050543  38.7782455  54.6548799  31.8626088
  37.6851438  53.7470744  30.2829642  36.6738110  53.9564117  29.9344200
  38.5954425  53.5248165  29.0531956  38.1908845  52.7192420  28.4404299
  38.6425860  54.4404504  28.4637110  40.3398540  53.0620921  29.4180169
  40.7293900  52.9770298  28.1491889  37.6857130  52.4916913  31.1676567
  38.3101261  52.4901952  32.2370140  36.9723011  51.4774931  30.7181319
  36.4452951  51.5623723  29.8607174  36.8497977  50.2259069  31.4950296
  37.7576087  50.0766612  32.0795842  35.6430875  50.2673957  32.4590224
  35.6581849  49.3622054  33.0660658  35.7501119  51.1390548  33.1046664
  34.3957410  50.3473397  31.7496441  33.6708840  50.3711785  32.3786226
  36.7605635  49.0325461  30.5806641  36.4165271  49.1525992  29.3712026
  37.0593364  47.8573274  31.1429636  37.3239917  47.8160485  32.1167978
  36.9179539  46.5833304  30.3985492  36.1712035  46.7001977  29.6131798
  38.2475187  46.1748543  29.7535377  39.0302955  46.3901676  30.4808615
  38.1976431  45.0996262  29.5817912  38.5444574  46.8408267  28.5225852
  39.3884228  46.5305208  28.1863822  36.5920278  45.5152352  31.4259828
  36.9848761  45.6505150  32.5959535  35.8918654  44.4840561  30.9580978
  35.5404794  44.5462777  30.0132403  35.5689917  43.3089522  31.7325139
  35.9951525  43.3897433  32.7324934  34.0353469  43.1702163  31.8591323
  33.8362190  43.9165919  32.6281387  33.5544985  43.4710864  30.9283467
  33.4780279  41.8151868  32.3066460  33.8279786  41.0393091  31.6257282
  33.9684360  41.4899861  33.7705144  33.6184543  42.2652363  34.4521292
  33.5684587  40.5251557  34.0823178  35.0576885  41.4545744  33.7898852
  31.9413270  41.7317827  32.1553219  31.6701698  41.8785566  31.1098408
  31.5958199  40.7521950  32.4856762  31.4732763  42.5057244  32.7636326
  36.1850549  42.0599754  31.0605912  36.0406598  41.8791574  29.8360011
  36.8347492  41.2014685  31.8600610  37.0013251  41.4287933  32.8299451
  37.3547448  39.9133569  31.3404618  37.0333894  39.7690495  30.3089555
  38.8889003  39.9134000  31.3807208  39.1777796  40.1244577  32.4103337
  39.3607598  38.9866656  31.0542061  39.4682404  41.0079509  30.5405610
  39.5230987  40.9187283  29.1704739  39.9801911  42.0648312  28.6815560
  40.0711147  42.2111328  27.6052532  40.2573721  42.8688213  29.6914593
  40.6474009  43.7981247  29.6253340  39.9269660  42.2335252  30.8660213
  40.0620857  42.7450569  31.8190056  36.8454851  38.7066616  32.1285989
  36.6744053  38.8255476  33.3157580  36.5595604  37.5958889  31.4155119
  36.6568170  37.6071947  30.4102694  36.1136883  36.3478955  32.0603574
  35.9337286  36.4740018  33.1279767  34.8232727  35.8431910  31.4019716
  34.9903215  35.7033597  30.3339632  34.5329827  34.8934415  31.8512020
  34.0283333  36.5736549  31.5522815  37.1913453  35.3196082  31.8925907
  37.9324128  35.2979471  30.8864820  37.2759728  34.4090212  32.8578800
  36.7340832  34.4508415  33.7091767  38.1945944  33.3230567  32.6903999
  38.3638679  33.1249882  31.6319980  39.5569613  33.7037049  33.3507963
  39.9899925  34.5108873  32.7600005  39.3407796  34.0654918  34.3560206
  40.5784715  32.5063340  33.4321707  41.3693356  32.7767762  34.1318104
  40.0561150  31.6227464  33.7989388  41.2015190  32.1794233  32.1075310
  41.7294015  33.0698327  31.3968755  41.1553290  30.8829235  31.7262598
  41.5592790  30.6046659  30.8433677  40.7170888  30.1986346  32.3260895
  37.6081732  32.0753447  33.3454853  37.3900836  32.0769337  34.5480556
  37.4162028  31.0058318  32.5550149  37.5999788  31.0900211  31.5654504
  36.9279829  29.7031382  33.0715812  36.1709287  29.8670411  33.8384606
  36.2961990  28.8723027  31.9193332  35.6767787  29.5432733  31.3241725
  37.1073898  28.4849574  31.3028650  35.4091038  27.6624733  32.4493065
  36.0783855  26.9121960  32.8703134  34.7523870  28.0427904  33.2317284
  34.5590256  27.0232897  31.3299703  35.2153705  26.6224031  30.5575713
  33.9544105  26.2175898  31.7463688  33.6714475  28.0078490  30.7237804
  32.8090028  28.2100057  31.2089826  33.8998439  28.6074323  29.5598311
  35.0021644  28.3162953  28.8621832  35.6600710  27.6398605  29.2223150
  35.1721659  28.7740704  27.9780784  33.0528368  29.5292796  29.1391761
  32.2482582  29.7659402  29.7019772  33.2135742  29.9933460  28.2566204
  38.1151048  28.9669345  33.6725704  39.2282181  28.9643799  33.0937447
  37.9029007  28.3557769  34.8455110  36.9948162  28.4135377  35.2838552
  38.9478658  27.6062501  35.5218656  39.7663937  27.4183471  34.8270248
  39.4901159  28.3770143  36.7690354  38.6819709  28.5007265  37.4899358
  40.6351369  27.6012434  37.4165965  41.4439064  27.4775281  36.6963972
  41.0022225  28.1504924  38.2835881  40.2776949  26.6212213  37.7326521
  39.9724202  29.7779937  36.2945512  40.6594677  29.6396488  35.4597295
  39.1036088  30.3444897  35.9593669  40.7059072  30.5730015  37.4570882
  41.5751531  30.0073043  37.7924957  41.0274747  31.5460458  37.0857685
  40.0192943  30.7121432  38.2921344  38.3515369  26.2740837  35.9649621
  37.2970898  26.2304735  36.6252806  39.0530772  25.1928009  35.6035444
  39.9020696  25.3097156  35.0690894  38.5696706  23.8199368  35.8592929
  37.4848346  23.8197556  35.9652650  38.9504116  22.8973564  34.6816875
  40.0072092  23.1105463  34.5209760  38.8101074  21.8222356  34.7936253
  38.2347902  23.2955176  33.4210350  36.8834125  23.1023359  33.2707774
  36.4784477  23.6343395  32.1254448  35.4359028  23.5730267  31.8132915
  37.5274976  24.1841443  31.5402251  37.5284626  24.6597498  30.6492154
  38.6316691  24.0068850  32.3411329  39.5949768  24.4187067  32.0402300
  39.1297467  23.3905467  37.2127215  40.0028505  22.5396135  37.2999696
  38.6338721  24.0592435  38.2451604  37.9555254  24.7822685  38.0523391
  39.0525881  23.8518745  39.6344771  39.1836117  22.7885770  39.8353011
  40.3542288  24.5638545  39.9308838  40.2361416  25.6310608  39.7431971
  40.6252605  24.4068903  40.9749165  41.1403759  24.1672843  39.2883856
  37.9326346  24.3379944  40.5408036  37.0764053  25.0996263  40.0976770
  37.8963712  23.8597402  41.8158844  38.8500418  22.9171536  42.4531721
  39.6822653  23.4624788  42.8982842  39.2321242  22.2090776  41.7178216
  37.9771990  22.2596544  43.4802945  38.5730306  21.8299841  44.2855691
  37.3598467  21.4817991  43.0309408  37.0985261  23.4418967  43.9907129
  37.7269044  24.0061514  44.6798111  36.1553390  23.1957319  44.4784633
  36.8331872  24.2734315  42.7252651  35.8654126  24.1167016  42.2488763
  36.9990698  25.7511521  43.0635398  38.1452337  26.2182902  43.1886328
  35.8723451  26.4545689  43.2518119  34.4775866  26.0524780  42.9711469
  34.2829026  25.0797256  43.4227564  34.3287120  25.9884010  41.8932650
  33.6832933  27.1296551  43.5844019  33.4979677  26.9041086  44.6345839
  32.7321270  27.2342270  43.0624358  34.5336943  28.3890561  43.4258868
  34.3339248  29.0517065  44.2679590  34.3465925  28.9211316  42.4931552
  35.9856914  27.9128261  43.4724638  36.5756156  28.3385196  42.6607540
  36.6543690  28.2319227  44.8087312  37.3105100  29.2692002  44.9199848
  36.5261123  27.3412581  45.8156909  35.8811780  26.5645945  45.7848242
  37.2319301  27.6027463  47.0609644  37.0284547  28.6243903  47.3818077
  36.7807481  26.6229319  48.1953861  37.3430647  26.8761191  49.0941605
  35.7183216  26.7895055  48.3731593  37.0185371  25.1261712  47.8393442
  37.9161912  25.1021125  47.2214938  37.2064122  24.5960203  48.7730156
  35.8522933  24.4412920  47.0824169  35.0471863  25.1236877  46.4025201
  35.7402518  23.1800864  47.1928163  38.7356492  27.6079824  46.8327375
  39.4636271  28.4067577  47.4585172  39.2391674  26.7310795  45.9672800
  38.6743752  26.0040989  45.5518185  40.6683558  26.7591056  45.6603779
  41.2465349  26.7935170  46.5837543  41.0654578  25.5044766  44.8816936
  40.7803019  24.6997900  45.5593843  40.4046896  25.5000264  44.0148224
  42.4965908  25.2981519  44.4267681  42.6613029  25.9274874  43.5521780
  43.5306865  25.6518728  45.5168876  43.3668896  25.0225819  46.3916804
  44.5366696  25.4838898  45.1323352  43.4197361  26.6992729  45.7975004
  42.6459343  23.8320178  44.0305342  41.9526958  23.6012866  43.2216567
  43.6670849  23.6474738  43.6969231  42.4248433  23.1986048  44.8896068
  41.0895724  28.0307619  44.8785244  42.1009558  28.6844139  45.2014931
  40.3302519  28.3727067  43.8477504  39.5730457  27.7907872  43.5189530
  40.6278114  29.6278522  43.1071802  41.6205186  29.6076401  42.6574881
  39.5848482  29.8723917  41.9917062  38.5849385  29.7979556  42.4191862
  39.7755561  31.2744741  41.3687891  40.7751462  31.3495135  40.9406656
  39.0330239  31.4288593  40.5859025  39.6531455  32.0349661  42.1400019
  39.6706626  28.7778618  40.8896562  39.4820160  27.7999527  41.3326104
  38.9252086  28.9773822  40.1198578  40.6649815  28.7882229  40.4431998
  40.6605626  30.8217037  44.0791863  41.5872101  31.6637490  44.0392062
  39.6408503  30.9065016  44.9253269  38.8557574  30.2822159  44.8070226
  39.5266449  32.0001213  45.9238533  39.5911452  32.9628492  45.4168089
  38.1690131  31.9282856  46.6851092  37.3120309  32.0489790  46.0224526
  38.1025450  30.9659151  47.1925785  38.0427327  32.9883714  47.7516332
  37.9815499  32.7836475  49.1013879  37.9940994  31.7438711  49.4282018
  37.9152514  33.9742415  49.7757910  37.8733869  34.0839460  50.7789419
  37.9218712  35.0000146  48.8598485  37.8641973  36.3709483  49.0775534
  37.8065441  36.7333251  50.1039344  37.8841788  37.2058436  47.9512277
  37.8448428  38.2875527  48.0795169  37.9556895  36.6652165  46.6250348
  37.9630902  37.3117197  45.7474937  38.0189218  35.2685326  46.4205600
  38.0483429  34.8880891  45.3995322  38.0089190  34.4212347  47.5629978
  40.7569715  32.0871981  46.8792161  41.2780358  33.1578060  47.1768681
  41.2000678  30.9206041  47.3752182  40.6960216  30.0680517  47.1772509
  42.3793493  30.8457302  48.2473984  42.2016503  31.3757009  49.1831619
  42.6622655  29.3598905  48.5671918  43.1760081  29.2886616  49.5258858
  41.7189996  28.8162128  48.6197661  43.4849949  28.7903553  47.5412250
  43.6575625  27.8681469  47.7445766  43.6165587  31.4991863  47.6145723
  44.4923317  31.9895170  48.3151823  43.6955541  31.5379602  46.2763641
  42.9766031  31.1126546  45.7086284  44.8139639  32.1690890  45.6081949
  45.7306980  32.1508723  46.1975727  45.0760546  31.5019587  44.2143690
  44.1482172  31.5175352  43.6425512  46.1768167  32.2510940  43.4299329
  47.1051465  32.2355396  44.0009516  46.3342841  31.7631131  42.4680704
  45.8685208  33.2837655  43.2667078  45.3966891  30.0092286  44.4089872
  46.4526618  29.9461617  44.6717512  44.7927248  29.6647998  45.2484486
  45.1172043  29.1141124  43.1678162  45.7212013  29.4576673  42.3280201
  45.3730324  28.0802644  43.3997850  44.0612640  29.1763074  42.9047160
  44.5640248  33.6707362  45.3904977  45.4351096  34.5242564  45.6868956
  43.4039043  33.9627243  44.8036670  42.7978711  33.2031756  44.5281514
  42.9746123  35.3625326  44.4909257  43.6571946  35.9096513  43.8406629
  41.5878416  35.3435832  43.8399342  41.0140398  34.5450904  44.3103169
  40.8150951  36.7008292  43.9901577  41.3881010  37.4997776  43.5195766
  39.8410197  36.6202662  43.5076775  40.6785732  36.9266684  45.0477305
  41.7476729  34.9292093  42.3917553  42.1959420  33.9367702  42.3446232
  40.7705906  34.9092851  41.9090413  42.3916666  35.6429685  41.8780232
  42.9507584  36.2456518  45.7581102  43.2277230  37.4570695  45.6930048
  42.6248764  35.6554003  46.9030997  42.3520766  34.6831334  46.9225107
  42.4836084  36.4530915  48.1519817  42.0394117  37.4220673  47.9242223
  41.5794968  35.7225021  49.1530064  41.2596952  36.4245761  49.9230182
  40.7055031  35.3365126  48.6283663  42.3443134  34.5515417  49.8097257
  42.6324356  33.8377861  49.0379489  43.2387176  34.9398572  50.2969160
  41.4476157  33.8416003  50.8630160  40.5433544  33.4614943  50.3876950
  41.9919673  33.0153069  51.3202029  41.0638853  34.7877343  51.9118336
  40.1803439  35.2596615  51.7824549  41.7797365  35.0697855  52.9920087
  42.9626253  34.4687512  53.1917282  43.3064663  33.8006354  52.5168248
  43.5037971  34.6871833  54.0160583  41.3073046  35.9450670  53.8724667
  40.4124821  36.3851566  53.7121106  41.8450909  36.1664649  54.6982194
  43.7932376  36.9056872  48.8074496  43.7931910  37.7888829  49.6755173
  44.8961835  36.2795063  48.4030799  44.7968559  35.5440690  47.7179774
  46.2207309  36.5350565  48.9555357  46.1653165  36.6539351  50.0376153
  47.1339624  35.3510276  48.6404977  47.0935166  35.1632828  47.5675507
  48.1518763  35.6187067  48.9238687  46.7144699  34.1027714  49.3869751
  45.6492941  33.9258981  49.2379209  47.2794913  33.2466801  49.0182467
  46.9926205  34.2926997  50.8638774  46.5354207  35.2163690  51.2187045
  46.5992131  33.4509145  51.4337264  48.4388252  34.3714047  51.0810374
  49.0332094  34.1473698  50.2957889  49.0091789  34.7200927  52.2280781
  48.2471709  35.0421231  53.2731839  47.2411258  35.0191478  53.1868979
  48.6792983  35.3076420  54.1466055  50.3391247  34.7403479  52.3317943
  50.9085200  34.4899436  51.5360640  50.7704641  35.0059915  53.2055669
  46.7967787  37.8686582  48.4300279  47.6931336  37.9016762  47.5806706
  46.3041429  38.9495104  49.0125874  45.5565164  38.8514616  49.6845549
  46.7404791  40.3025962  48.6499876  46.5853860  40.4818434  47.5860724
  45.9202052  41.3189811  49.4406414  44.8591282  41.2112934  49.2156568
  46.0824064  41.1644726  50.5073738  46.2784704  42.7551440  49.1534148
  45.8157062  43.3719429  47.9857666  45.1968655  42.8113729  47.2851259
  46.1495879  44.7215555  47.7131169  45.7829516  45.1924097  46.8009904
  46.9392397  45.4448494  48.5997814  47.2026007  46.4802591  48.3837543
  47.3941783  44.8399955  49.7688719  48.0088438  45.3960852  50.4767213
  47.0500738  43.4829677  50.0363729  47.3974041  43.0028067  50.9511991
  48.2488289  40.5078720  48.8584388  48.8888376  41.2038917  48.0856676
  48.8411087  39.8308370  49.8527714  48.2892854  39.2862648  50.5000978
  50.2821295  39.9285059  50.0816573  50.6060717  40.9584582  49.9321282
  50.6457888  39.4997261  51.5256731  51.7347792  39.5042949  51.5723445
  50.2487176  40.2137012  52.2472506  50.1326426  38.1130999  51.8532977
  48.9954378  37.7356520  51.4278093  50.8421210  37.4075094  52.5884680
  51.1621078  39.1506584  49.1245275  52.3776292  39.3471124  49.1449607
  50.5840687  38.2814951  48.3026103  49.5785017  38.1871429  48.2969466
  51.3641116  37.4565128  47.3773589  52.3878150  37.8246145  47.3093023
  51.3958137  36.0107324  47.8944965  50.3637153  35.6907372  48.0375881
  51.8625019  35.3968669  47.1241256  52.1515426  35.8554902  49.1844196
  52.0139425  36.7438393  49.8008634  51.7861285  34.9805929  49.7221270
  53.6433148  35.6767464  48.8710009  53.9332161  36.3892113  48.0986992
  54.2226242  35.8656413  49.7747812  53.9186449  34.2357453  48.3733239
  54.2139780  33.6481551  49.2425860  52.9797848  33.8496514  47.9763699
  54.9877131  34.1399581  47.3160500  55.8578699  34.4972738  47.6838166
  55.1078555  33.1743733  47.0452884  54.7140490  34.6840181  46.5103170
  50.7908606  37.4056218  45.9662546  50.5190672  36.3294835  45.4624851
  50.5867938  38.5721192  45.3292778  51.0878178  39.8929071  45.7405006
  52.1030890  39.7959207  46.1251019  50.4431116  40.3033759  46.5176546
  51.0263133  40.6933554  44.4573296  52.0119414  40.6831067  43.9920004
  50.7497491  41.7196628  44.6987974  50.0330825  40.0779892  43.6044311
  50.3065312  40.2178135  42.5585946  49.0321698  40.4749058  43.7739322
  50.0715555  38.5727620  43.9614492  49.0861701  38.1074722  43.9863314
  50.9642222  37.8253417  42.9619143  50.4639523  37.2955067  41.9779779
  52.2596895  37.7613273  43.2201034  52.6410654  38.2684302  44.0059141
  53.1920965  37.1365079  42.2777936  52.9909664  37.4939105  41.2678880
  54.6550233  37.4902245  42.6460199  55.2856198  37.1879624  41.8099068
  54.7095700  38.5718769  42.7691158  55.1427427  36.8058517  43.9263092
  54.6196563  35.8529599  44.0067988  56.2138125  36.6252214  43.8352911
  54.8912126  37.6064691  45.1933492  53.8723598  38.2818275  45.3541004
  55.8490758  37.5393487  46.1069038  55.7510182  38.0459440  46.9751476
  56.6726612  36.9819121  45.9306286  52.9250635  35.6176576  42.0974268
  53.3941584  35.0065724  41.1206455  52.1140322  35.0166930  42.9708996
  51.7227865  35.4933871  43.7707677  51.7747691  33.5915881  42.7690243
  52.6976479  33.0119588  42.7484371  50.8629394  33.0067897  43.8131352
  50.6052546  31.9899885  43.5168008  51.5208373  32.9831349  45.1693596
  51.7784096  33.9997018  45.4665933  50.8341914  32.5546249  45.8994252
  52.4262652  32.3779516  45.1240361  49.6616483  33.7941245  43.8600155
  49.0682013  33.4332478  44.5227288  51.0745194  33.4083565  41.4196072
  51.1732741  32.3324651  40.8304034  50.4169343  34.4486006  40.9033252
  50.1710832  35.2439033  41.4752957  49.8799133  34.3825429  39.5238968
  50.4190290  33.6232930  38.9573344  48.4044097  34.0236716  39.5343646
  48.1291035  33.6492353  38.5484117  48.3139072  33.2205520  40.2657389
  47.4960514  35.1433564  39.9116127  46.8502119  35.8788176  38.9311266
  47.0362958  35.6422314  37.8835106  45.9943642  36.8836397  39.2598033
  45.4707413  37.4398631  38.4822839  45.7784734  37.1946254  40.6117885
  44.9492839  38.2297131  40.9377567  44.5750809  38.6668591  40.1693329
  46.3966308  36.4821503  41.6143276  46.2312442  36.7257105  42.6638162
  47.2312348  35.4521573  41.2741563  47.7044572  34.8541953  42.0530030
  50.1005886  35.5847928  38.5664190  49.8675869  35.4885435  37.3386669
  50.5398542  36.7006115  39.0969378  50.6097850  36.8290913  40.0962886
  50.8677089  37.8170170  38.2373238  50.3518778  37.7315942  37.2809137
  50.4166299  39.1146942  38.9240607  51.0987425  39.2884312  39.7563089
  50.5245451  39.9160741  38.1931402  48.9825758  39.0877907  39.4400276
  48.2843714  38.9285218  38.6182947  48.8581753  38.2973561  40.1801895
  48.7010424  40.4532974  40.0952614  49.2184098  40.4463874  41.0546269
  49.1508098  41.2043913  39.4459026  47.2728941  40.7769100  40.3077542
  46.6871834  40.4712180  39.4408079  46.9014820  40.2648308  41.1954067
  47.1418015  42.3356984  40.5071197  47.4855087  42.8103791  39.6845364
  46.1718213  42.5759263  40.6538470  47.6841178  42.6191048  41.3106575
  52.3578524  37.8451868  37.9035804  53.2173403  38.2904397  38.7546622
  52.6765328  37.5287856  36.6417836  51.9652550  37.4571437  35.9283058
  54.0782929  37.2010682  36.2743398  54.5794313  36.7526117  37.1321546
  54.1387806  36.2012865  35.0849552  53.3265687  36.3042121  34.3653600
  55.0867674  36.4276052  34.5968969  54.1897545  34.7494476  35.4711695
  54.9912449  34.2650720  36.4862215  54.8650163  32.9508733  36.5626288
  55.4041656  32.3839665  37.3215976  54.0327003  32.5569005  35.6138482
  53.7383068  31.6072703  35.4359863  53.6229714  33.6602513  34.8942663
  52.9612229  33.5368140  34.0369721  54.9699179  38.4147399  35.9153218
  56.1990498  38.2285412  35.6225304  54.3602060  39.6114549  35.9409881
  53.3653811  39.6539351  36.1101574  55.0864576  40.8659427  35.7631653
  55.9043123  40.7324107  35.0550819  54.1356567  41.9329210  35.2164395
  53.1996232  42.0301787  35.7664225  54.6756609  42.8791920  35.2490991
  53.7614589  41.6940627  33.7567643  54.7709037  41.7229280  32.7601270
  55.7997644  41.9406315  33.0467465  54.4533802  41.4733761  31.4101727
  55.2208916  41.5362271  30.6387605  53.1486703  41.1448499  31.0663769
  52.9093396  40.9387151  30.0231467  52.1276508  41.0755469  32.0591641
  51.1051865  40.8159948  31.7847565  52.4489568  41.3456760  33.4034374
  51.6775849  41.2842590  34.1711049  55.6260930  41.3609903  37.1032143
  56.2188877  42.4125631  37.1524284  55.3421806  40.6411205  38.1946162
  54.7563133  39.8199039  38.1449949  55.8270769  41.0755887  39.5188934
  56.1499557  42.1165634  39.5337281  54.7346357  40.8575769  40.6000188
  54.3862414  39.8267227  40.5362904  55.3031495  41.1403665  42.0769383
  55.6513304  42.1712360  42.1415810  54.5117390  40.9781561  42.8086883
  56.1323907  40.4637180  42.2833481  53.5262457  41.7256797  40.2438221
  53.8642954  42.7615797  40.2709210  53.2403087  41.4638781  39.2250976
  52.3071260  41.5568732  41.1806687  52.5921872  41.8189576  42.1995660
  51.5006490  42.2112768  40.8498362  51.9682019  40.5212548  41.1537442
  57.1066366  40.3565385  39.9184403  57.1533572  39.1066785  40.0121116
  58.1267338  41.1335884  40.2380888  58.0545073  42.1367493  40.1456184
  59.3758990  40.5772907  40.6980160  59.5790412  39.6300676  40.1984153
  60.4974443  41.5451653  40.3759370  60.4631685  41.7623572  39.3083453
  60.3266993  42.4629834  40.9385703  61.8968704  40.9636513  40.7430052
  61.9426524  40.9223302  41.8312595  61.9304702  39.9515390  40.3397661
  63.0921177  41.7657003  40.2112006  63.9920635  41.2420210  40.5336234
  63.0288433  41.7423211  39.1232901  63.1486742  43.1920440  40.6785536
  62.3461491  43.7345590  40.1788220  62.9726227  43.1935197  41.7542408
  64.4750407  43.8662439  40.3826544  64.6381624  43.8653653  39.3859146
  64.4512122  44.8182679  40.7190807  65.2187644  43.3639410  40.8459749
  59.3310590  40.3066062  42.2140329  59.7474607  39.2423873  42.6796913
  58.8277934  41.2649263  42.9716379  58.5628854  42.1541911  42.5727252
  58.6875530  41.0814425  44.4403916  58.4490844  40.0425900  44.6684646
  60.0205386  41.4502503  45.1441302  59.9705572  41.1428242  46.1886829
  60.8413029  40.9290349  44.6514026  60.2421091  42.8666677  45.0726504
  61.0684041  43.0837803  45.5104843  57.5386403  41.9372804  44.9515776
  57.0651186  42.8738245  44.2869684  57.0512045  41.6178674  46.1469147
  57.4165620  40.8538619  46.6972862  55.9592700  42.3929406  46.6904204
  55.9693363  43.4024932  46.2795658  54.6308635  41.7272455  46.3202892
  54.4722872  41.7445645  45.2420254  54.5977542  40.6972378  46.6753779
  53.1973852  42.5568896  47.0519753  52.2846334  41.7394989  46.5346214
  56.1370668  42.4208256  48.2021809  56.4342602  41.3871517  48.7983858
  56.0446985  43.5823876  48.7980760  56.0405140  44.4713110  48.3186003
  56.1235452  43.5826762  50.2566544  55.9997981  42.5685514  50.6365710
  57.4679726  44.1050802  50.7044257  57.6514235  43.7955881  51.7333376
  58.2467033  43.6987462  50.0590025  57.4816559  45.5061724  50.6282521
  58.3376985  45.8337974  50.9136514  54.9491464  44.3049690  50.9084185
  54.3662800  45.2601084  50.3548901  54.5914876  43.8076854  52.0935105
  55.0654401  42.9841823  52.4360175  53.5546794  44.3864844  52.9073467
  53.2130779  45.3191266  52.4583631  52.3653542  43.4168210  52.9901754
  52.7128654  42.4399057  53.3262880  51.3944186  43.9316735  53.9290460
  51.0460762  44.9084334  53.5933399  50.5489726  43.2464533  53.9906467
  51.8549827  44.0289391  54.9121645  51.6775204  43.2672872  51.6204038
  52.3927891  42.8808778  50.8943318  50.8395386  42.5757091  51.7076142
  51.3127149  44.2392910  51.2884001  54.1373217  44.6444930  54.3132430
  55.2265717  44.1920267  54.6319429  53.3882629  45.3502550  55.1383321
  52.6138945  45.8655641  54.7447467  53.6673570  45.4978775  56.5907735
  54.5562187  46.1053248  56.7611612  52.4679324  46.1992776  57.2250104
  51.5658756  45.7265268  56.8365526  52.5251123  46.0417025  58.3020436
  52.4236575  47.7030249  56.9305874  53.0651930  47.9243517  56.0776234
  51.3921323  47.9540563  56.6835284  52.8706185  48.5225969  58.1245801
  52.1715676  49.5160436  58.4712115  53.9125525  48.1481603  58.7280300
  53.9894607  44.2003689  57.3626961  53.2901784  43.1855926  57.2019498
  50.8312597  42.0784791  60.0268230  51.1280691  41.3126685  60.6146474
  49.4070847  42.4379741  60.0177674  49.0117030  42.3433509  61.0291125
  49.1732431  43.8867632  59.5292051  49.6510878  44.0149318  58.5579500
  48.1064406  44.0912285  59.4385057  49.7455647  44.9596783  60.4401925
  50.0100399  44.7013021  61.7957148  49.8006735  43.7125892  62.2040191
  50.5443824  45.7133099  62.6299632  50.7529562  45.4985246  63.6780400
  50.8067492  46.9972071  62.1072274  51.2173884  47.7757641  62.7501304
  50.5381480  47.2712509  60.7569491  50.7372519  48.2582355  60.3394336
  50.0025074  46.2486115  59.9343747  49.7806969  46.4520256  58.8867475
  48.6162030  41.4724484  59.1351348  49.1280650  41.0166911  58.1037805
  47.3798153  41.1571563  59.5378187  47.0645439  41.3869859  60.4694204
  46.4751753  40.4016116  58.6639047  47.0220864  39.6135150  58.1463228
  45.3209913  39.7603963  59.4572516  45.7264266  39.0601096  60.1875393
  44.7584076  40.5380763  59.9737914  44.4061030  39.0239215  58.5082076
  43.9998915  39.7236905  57.7778539  44.9679089  38.2457227  57.9916034
  43.2619254  38.3882682  59.2946744  42.2207985  39.0792106  59.4567077
  43.4399442  37.2178222  59.7259118  45.9675326  41.3707067  57.5771413
  45.6862057  42.5401526  57.8541673  45.8727246  40.9031704  56.3385945
  46.1857371  39.9774466  56.0833338  45.5008638  41.8246738  55.2733559
  45.9819984  42.7874810  55.4454341  45.9382927  41.2937803  53.8856153
  45.5986098  40.2601835  53.8193398  45.4204269  41.8945275  53.1379404
  47.5093932  41.3545566  53.6205506  47.9569982  40.7352122  54.3978299
  47.6564447  40.8810922  52.6498244  48.3238197  43.0051003  53.6182640
  49.1511550  43.1149243  55.2438959  49.8756135  42.3060707  55.3388415
  49.6641270  44.0730672  55.3270982  48.4079221  43.0312370  56.0368035
  44.0128364  42.1963154  55.4066040  43.1271244  41.3273877  55.4593761
  43.7656967  43.4984181  55.5449239  44.5444461  44.1395655  55.4941413
  42.4316109  44.0467387  55.7601691  41.6315828  43.3243775  55.5981549
  42.3285303  44.5798795  57.1996417  42.4376102  43.7537624  57.9023020
  43.1176915  45.3112258  57.3741618  40.9693012  45.2415196  57.4005221
  40.8596713  46.0680833  56.6984718  40.1795893  44.5106206  57.2266148
  40.8671243  45.7699883  58.8273738  40.9762059  44.9438724  59.5300350
  41.6562846  46.5013355  59.0018921  39.5581158  46.4203375  59.0596320
  38.8942107  46.4523594  58.2991690  39.2160899  46.9645327  60.2240075
  40.0359706  46.9616479  61.2712361  40.9487759  46.5365004  61.1929030
  39.7420133  47.3846158  62.1400209  38.0131905  47.5232680  60.3227433
  37.3930032  47.5237542  59.5255811  37.7254256  47.9445187  61.1944302
  42.2303016  45.1986531  54.7444473  43.2064255  45.7712240  54.2718177
  40.9793307  45.5217430  54.4173163  40.2323027  44.8657046  54.5952548
  40.6734911  46.7353494  53.6325523  41.0723929  46.6658539  52.6205509
  39.1290707  47.0226311  53.5455591  38.7299048  47.0074460  54.5597264
  38.8112145  48.3696509  52.8927818  39.2096928  48.3854181  51.8783523
  37.7310960  48.5125033  52.8605660  39.2661224  49.1718943  53.4737860
  38.4165247  45.9016373  52.7891729  38.5713088  44.9562526  53.3091650
  37.3493224  46.1176655  52.7390658  38.8201108  45.8304802  51.7791453
  41.4845670  47.9302608  54.1241423  41.5104992  48.2612630  55.3466708
  42.1661085  48.5658632  53.1681068  42.1603401  48.1635372  52.2417160
  42.9161967  49.8032286  53.3820870  42.7885575  50.4644207  52.5249800
  42.5556178  50.3018174  54.2818044  44.3934040  49.4896482  53.5489286
  45.2040657  50.4085307  53.4947586  44.7768912  48.2191151  53.7662402
  44.1084999  47.4717560  53.8879231  46.2227240  47.8798898  53.7804024
  46.7229091  48.4939222  54.5293205  46.4642707  46.4285432  54.1079924
  45.8377134  45.7796168  53.4960939  47.5115709  46.1635633  53.9629136
  46.0720685  46.0165646  55.8531414  46.3915585  44.7283818  55.7670626
  46.8137761  48.1100623  52.3880228  46.0862630  48.0393260  51.3789886
  48.1146198  48.3449039  52.3399177  48.6659945  48.4471578  53.1799352
  48.7747788  48.5821779  51.0314178  48.0951883  48.3722827  50.2054638
  49.2952855  50.0559082  50.8904150  49.8583736  50.1312628  49.9601712
  48.1284987  51.0868029  50.8753838  47.5651958  51.0123576  51.8055705
  48.5338980  52.0937475  50.7763230  47.4684320  50.8770042  50.0337206
  50.2020417  50.3341391  51.9682089  50.5256735  51.2345311  51.8897428
  49.9075846  47.5790409  50.7666816  50.4884343  46.9696076  51.7201440
  50.2440372  47.3695192  49.4836737  49.7128249  47.7720749  48.7248181
  51.3940806  46.5194919  49.1537663  51.9279650  46.2520465  50.0656542
  50.9348936  45.2391497  48.4646877  51.8229713  44.6222596  48.3273422
  50.2506844  44.7421174  49.1523771  50.2408618  45.4438584  47.1123183
  49.4177398  46.1486406  47.2300176  50.9576486  45.8400046  46.3930222
  49.6851285  44.0746153  46.5947753  50.5095918  43.4220367  46.3075464
  49.0956194  43.5925791  47.3746596  48.8271106  44.2921432  45.4230996
  48.9293546  45.1682129  44.9310148  47.9148040  43.4163287  44.9850588
  47.7369201  42.2444957  45.6170205  48.2953483  42.0221002  46.4286844
  47.0455468  41.5910854  45.2776716  47.1744693  43.7027119  43.8802682
  47.3160608  44.5764395  43.3937992  46.4865548  43.0403195  43.5514696
  52.3475387  47.2808376  48.2392630  51.8766202  48.1439173  47.4657217
  53.6503227  47.0221996  48.3518565  54.0042087  46.4316356  49.0908410
  54.6020629  47.6477567  47.4578353  54.0878566  48.4114638  46.8743606
  55.7676801  48.3078245  48.2123126  56.1892999  47.5005105  48.8111282
  56.5198852  48.6711560  47.5121143  55.3342055  49.4474528  49.1290073
  54.4437070  50.2553631  48.8051658  55.9734616  49.5752390  50.1885786
  55.1194413  46.6341188  46.4694777  55.8765969  45.7518026  46.8115515
  54.7642375  46.8286336  45.1998103  54.2484433  47.6554578  44.9344478
  55.1259823  45.8650202  44.1487333  55.4104532  44.8822731  44.5247437
  53.9247476  45.6950372  43.1683859  53.5458422  46.6876202  42.9248516
  54.3247172  44.9617165  41.8651262  54.7033129  43.9688124  42.1078351
  53.4529202  44.8692683  41.2174195  55.0999592  45.5299687  41.3511313
  52.7140382  44.9680481  43.8440097  52.3734387  45.5485580  44.7013908
  51.9004783  44.8712804  43.1250827  53.0240279  43.9774097  44.1766400
  56.3282544  46.4391806  43.4013447  56.3742639  47.6752499  43.1436127
  57.2976920  45.5835528  43.0898551  57.2844992  44.6529239  43.4820989
  58.4054997  45.9484904  42.2078921  58.3240572  46.9868636  41.8865707
  59.7983372  45.7113138  42.8352260  59.8428487  44.6939797  43.2240068
  60.9316377  45.9119756  41.7589473  60.8880528  46.9292923  41.3700159
  61.9048240  45.7408465  42.2190820  60.7870907  45.2047909  40.9421884
  60.0132721  46.6196535  44.0728673  60.1762343  47.6291873  43.6955271
  59.0866205  46.5917789  44.6461380  61.2121892  46.2072830  44.9970715
  62.1393153  46.2353734  44.4245788  61.2816613  46.9016148  45.8344342
  61.0497024  45.1979635  45.3751880  58.2284458  45.0784135  40.9469487
  58.0582155  43.8706227  41.0390471  58.2027583  45.7078019  39.7751227
  58.2364674  46.7105805  39.6593724  57.9349988  44.8807157  38.5950700
  57.4711702  43.9363043  38.8797616  57.0455258  45.5680031  37.5382230
  56.9401614  44.9244137  36.6648443  55.6221825  45.8303794  38.1737241
  55.7266906  46.4743197  39.0469479  54.9798038  46.3163391  37.4393581
  55.1771630  44.8816616  38.4737136  57.6789528  46.8128760  37.0500758
  58.6431336  46.5779419  36.5992283  57.0348844  47.2812052  36.3058022
  57.8261435  47.4978641  37.8850771  59.2211138  44.3310822  37.9653793
  60.3169338  44.7942473  38.2627706  59.0521647  43.3647989  37.0848274
  58.1308401  42.9913133  36.9065891  60.1745872  42.8005294  36.3607303
  61.0005370  42.5782252  37.0363685  59.7839621  41.5021061  35.5666120
  60.6532720  41.1337635  35.0218878  59.2974111  40.4141980  36.5598537
  58.4277784  40.7816623  37.1046561  59.0264599  39.5135417  36.0089413
  60.0956580  40.1819421  37.2648063  58.7122537  41.7816449  34.4795591
  57.8162320  42.1640427  34.9684535  59.1024336  42.5356825  33.7959756
  58.3400104  40.4278309  33.6420936  57.9493026  39.6734420  34.3249880
  57.5866869  40.6610576  32.8896255  59.2355055  40.0450804  33.1525117
  60.7178238  43.8137615  35.3741403  60.0244997  44.7900943  35.0428099
  61.9300578  43.5715287  34.9025176  62.4676181  42.7793063  35.2242504
  62.5466116  44.4821828  33.9110961  62.5275828  45.5065619  34.2830968
  64.0026565  44.0791773  33.6616093  64.4438524  44.7875641  32.9604435
  64.5418643  44.1217679  34.6079397  64.0904516  42.7595933  33.1231086
  65.0121400  42.5342068  32.9771933  61.8302694  44.5144615  32.5677909
  61.1295373  43.5581555  32.1936433  62.0618678  45.5973589  31.8170343
  62.5502756  46.4020519  32.1831305  61.6044904  45.6365503  30.4293280
  62.3607283  46.1660767  29.8498409  61.5335636  44.6070144  30.0784367
  60.2677186  46.3169172  30.2324936  59.8183352  46.4943022  29.0783502
  59.6217095  46.7111431  31.3368031  60.0363151  46.5775861  32.2480462
  58.2961819  47.3249591  31.2612681  57.8234539  47.0953445  30.3063311
  57.4108895  46.7618268  32.3995880  57.9934508  46.8774796  33.3135606
  56.5602754  47.4430120  32.4228778  56.9063170  45.3183944  32.2949851
  57.7396066  44.6522665  32.0713719  56.2615859  44.9060680  33.6559883
  55.4278695  45.5715030  33.8800687  55.8995250  43.8800096  33.5910506
  57.0066468  44.9784442  34.4482928  55.8728293  45.1805716  31.2574741
  56.2858434  45.4714138  30.2915913  55.5388878  44.1439834  31.2119865
  55.0268042  45.8240397  31.4989060  58.3843872  48.8519497  31.3877890
  59.4153117  49.3686154  31.8669143  57.3059338  49.5670556  31.0110387
  56.1467634  49.0735949  30.2415437  55.6623810  48.2633447  30.7864919
  56.4795500  48.7090946  29.2696941  55.2317799  50.3574951  30.1227560
  54.5234982  50.4023834  30.9500535  54.6871309  50.3546425  29.1785893
  56.2101039  51.4988087  30.1747594  55.6699325  52.3686124  30.5485981
  56.6961293  51.7510489  29.2322872  57.2495232  51.0593513  31.1928452
  58.2358512  51.4827707  31.0031842  56.8151272  51.3963371  32.6304720
  55.9395874  52.2503370  32.8658593  57.5034202  50.7504355  33.5800587
  58.2591754  50.1334600  33.3187648  57.1687732  50.8757171  35.0006142
  57.1033761  51.9239735  35.2921291  55.8509303  50.2062648  35.3082952
  55.9038735  49.1536571  35.0302409  55.6406199  50.2897317  36.3745517
  55.0555377  50.6914110  34.7425364  58.2848097  50.2595754  35.8030928
  59.0019391  49.3877517  35.3168799  58.4348928  50.7518181  37.0336241
  57.9360625  51.5891518  37.2984635  59.3456221  50.1571910  37.9993052
  59.8308948  49.2928295  37.5459966  60.4459028  51.1625629  38.4584552
  59.9926510  52.0143878  38.9654625  61.0846164  50.6222719  39.1571901
  61.3116590  51.6828127  37.3051212  61.6203789  52.8827879  37.2408354
  61.7371724  50.8006294  36.4428846  62.3109014  51.0947665  35.6654412
  61.4908015  49.8278077  36.5569903  58.6435163  49.6220008  39.2310697
  59.0228779  48.5769882  39.7284321  57.6569049  50.3614169  39.7275158
  57.2834284  51.1332296  39.1937369  57.0415992  50.0504666  41.0318972
  57.2293460  49.0048257  41.2757935  57.6203617  50.9316557  42.1596049
  57.0973933  50.6863719  43.0839642  59.1333393  50.7111189  42.3517717
  59.6570600  50.9566593  41.4279069  59.4953175  51.3523434  43.1554520
  59.3193453  49.6681369  42.6080742  57.4057683  52.3137563  41.8341381
  57.7640503  52.8663387  42.5326272  55.5691945  50.3574239  40.9549837
  55.1289090  51.1826539  40.1279352  54.8017741  49.7865514  41.8643948
  55.1818361  49.0618811  42.4564295  53.4169625  50.1334958  42.0168663
  53.2645936  51.1666339  41.7046026  52.5115203  49.2156417  41.1530033
  52.7535120  49.3697128  40.1014324  52.7037480  48.1767615  41.4211010
  51.1020607  49.5231364  41.3778225  50.5583834  48.9465024  40.8360586
  53.0244383  50.0257349  43.4975754  53.4481405  49.0816034  44.1807439
  52.2558301  51.0031084  43.9868162  51.9878579  51.7837982  43.4047392
  51.7160375  50.9356029  45.3591485  52.2018402  50.1173515  45.8907118
  51.9599228  52.2512669  46.1447701  51.3902888  53.0580004  45.6834694
  51.5027267  52.0737812  47.6301696  52.0722855  51.2674710  48.0923018
  51.6760981  53.0003673  48.1774170  50.4407635  51.8296533  47.6573040
  53.3558970  52.5440075  46.0986400  53.5285599  53.3563969  46.5801078
  50.2441236  50.7753920  45.2441885  49.5781030  51.5767966  44.5704436
  49.7157422  49.7489701  45.9054442  50.2868544  49.2225516  46.5510554
  48.3369787  49.3435412  45.7198004  47.7886126  50.0928415  45.1488864
  48.3143539  48.0302450  44.9474902  48.8350437  47.2549123  45.5094871
  47.2856767  47.7184230  44.7666853  49.0358339  48.2565088  43.5837859
  48.4183497  48.9707878  43.0391580  49.9945700  48.7155781  43.8249905
  49.2680109  47.0166727  42.7154305  49.0347783  45.8504888  43.1500483
  49.7044982  47.2755956  41.5636732  47.6100256  49.1555234  47.0608487
  48.1965878  48.6502988  48.0350694  46.3602475  49.5752825  47.0732167
  45.9816984  49.9647776  46.2216925  45.4831887  49.5209644  48.2758033
  46.0726971  49.3007354  49.1657910  44.7975798  50.8792417  48.4659515
  45.5925322  51.5866027  48.7021510  44.3610534  51.1332853  47.5000288
  43.7022073  50.9479899  49.5621480  42.9988709  50.1326362  49.3929819
  44.1819622  50.8179071  50.5322077  42.9344366  52.3123776  49.5387707
  43.6420295  53.1406858  49.5024826  42.2771566  52.3583866  48.6704589
  42.1131632  52.4437518  50.7624847  42.5449251  52.9510436  51.5216527
  40.8778952  51.9742281  50.9329180  40.2536624  51.2848294  49.9815023
  40.7192068  51.1069590  49.1030204  39.3171085  50.9425219  50.1421010
  40.2459250  52.1862945  52.1077739  40.7127026  52.6965804  52.8438629
  39.3094785  51.8336119  52.2448202  44.4239036  48.4303276  48.1198665
  43.7253337  48.3409935  47.1085062  44.3272406  47.5574159  49.1144701
  45.0277205  47.5261407  49.8414152  43.2528958  46.5761734  49.1488281
  43.1503331  46.0723523  48.1877118  43.6107973  45.5160653  50.2302801
  44.5331751  45.0343207  49.9058720  43.7877899  46.0453599  51.1665604
  42.5225737  44.4492636  50.4424131  41.6013641  44.9546993  50.7322551
  42.2753889  43.6252281  49.1788538  43.1960960  43.1190932  48.8886389
  41.4999486  42.8843550  49.3735330  41.9536155  44.2838180  48.3721186
  43.0404842  43.5375483  51.6005638  43.1860183  44.1376990  52.4987500
  42.3094160  42.7545414  51.8019108  43.9878744  43.0834046  51.3102115
  41.8713677  47.2280404  49.4243174  41.7067837  47.8618718  50.4602150
  40.9344188  47.1669037  48.4744905  41.1109550  46.5825653  47.6698272
  39.6488449  47.8934622  48.5445365  39.7664712  48.7818384  49.1650613
  39.1801300  48.3311867  47.1400720  39.2753467  47.4372196  46.5237475
  38.1391815  48.6542607  47.1522969  40.0476048  49.4389807  46.5631327
  40.6160382  50.2466065  47.3641728  40.1168499  49.5753711  45.3037468
  38.5360021  47.0308807  49.1282863  37.6352265  47.5193369  49.8524436
  38.6070023  45.7401587  48.8503694  39.3228924  45.3703228  48.2414178
  37.5679117  44.7849404  49.3999282  37.3066490  45.0276437  50.4299457
  36.2684635  44.7736013  48.5197318  35.7931281  45.7506911  48.6060582
  36.5635282  44.4833300  47.0638409  37.0384855  43.5061319  46.9766618
  35.6329041  44.4863334  46.4963636  37.2319879  45.2481883  46.6685528
  35.2407871  43.7843447  49.0449571  35.6615753  42.7886127  48.9051148
  35.1271025  43.9838182  50.1105019  33.9382484  43.8563278  48.3960308
  34.0510702  43.6564914  47.3304622  33.2712559  43.1147240  48.8356260
  33.5165983  44.8516983  48.5358475  38.1640522  43.4136297  49.4805780
  38.9309762  43.0494194  48.5785200  37.8616982  42.6610192  50.5780594
  37.3582362  43.0612552  51.3567997  38.2952085  41.2774486  50.6758879
  38.4617125  40.8856734  49.6724499  39.6167502  41.1335662  51.4929878
  40.2946784  41.8743534  51.0690221  39.3756014  41.4081287  52.5199068
  40.2912658  39.7550772  51.4773057  39.5713076  39.0190483  51.8351081
  40.7722555  39.3591071  50.0536743  41.4926386  40.0944713  49.6953637
  41.2434841  38.3768637  50.0889197  39.9185000  39.3278496  49.3767511
  41.5150451  39.7462166  52.4304005  41.1873839  39.9710755  53.4453764
  41.9847891  38.7628364  52.4102703  42.2341335  40.4985031  52.1062466
  37.1467607  40.5086969  51.3307660  37.1361663  40.2954961  52.5738345
  36.1587183  40.1401467  50.5259922  36.2575787  40.2472693  49.5265670
  34.9175731  39.5890672  51.0397782  34.7822722  39.9043125  52.0743860
  33.7163831  40.0677534  50.2217158  33.8255700  41.1516031  50.1836740
  33.7608337  39.6629156  49.2106616  32.3691616  39.7131783  50.8538397
  32.2570472  38.6096587  51.4432851  31.3914178  40.5143030  50.6994007
  35.0344582  38.0761455  50.9624102  34.7426739  37.4884209  49.9285487
  35.4180073  37.4516807  52.0736652  35.7579284  37.9614410  52.8765957
  35.5156483  35.9860470  52.0868207  36.0426896  35.6543082  51.1922392
  36.2827692  35.4723231  53.3331872  35.8806069  35.9969850  54.1998444
  36.0984558  34.4032012  53.4385760  37.7629590  35.7186254  53.2411091
  38.3625737  35.4990983  52.1639642  38.3652019  36.1245475  54.2542530
  34.1945199  35.2372193  51.9212134  34.2047446  34.0256413  51.5573396
  33.0613306  35.8936031  52.1449976  33.0420761  36.8630609  52.4276285
  31.8040993  35.1896795  52.0242209  31.9435148  34.1466510  52.3083937
  30.7374970  35.8038381  52.9292218  31.1095502  35.7063258  53.9491076
  30.6818927  36.8592781  52.6626610  29.3452095  35.1804638  52.8333772
  28.6807617  35.7223220  53.5064297  29.0157208  35.3246753  51.8044266
  29.3110154  33.6670314  53.1802388  30.2085881  33.1710016  53.9311840
  28.3709735  33.0197607  52.7103155  31.3147950  35.1978786  50.6013983
  30.8529099  34.1667645  50.0751789  31.4351919  36.3317891  49.9494086
  31.8123620  37.1558782  50.3951878  30.9392386  36.4504419  48.5693032
  30.1757566  35.6975110  48.3736263  30.3304364  37.8152206  48.3755914
  31.1284403  38.5492745  48.4871883  29.9375545  37.8580201  47.3597608
  29.1883674  38.1320099  49.3877104  28.5301488  37.2653281  49.4486351
  29.6341463  38.3184374  50.3647611  28.3890632  39.3426424  48.9592776
  27.7622106  39.6570982  49.7937070  29.0829912  40.1437517  48.7047440
  27.5259277  39.0772871  47.7938113  27.0768254  38.1743056  47.7387582
  27.2953910  39.9660981  46.8190201  27.9026372  41.1447867  46.8506924
  28.5337190  41.3641094  47.6081442  27.7311859  41.8176279  46.1172152
  26.4703574  39.6911073  45.7924113  26.0080795  38.7942942  45.7463090
  26.3170474  40.3827379  45.0725211  32.0391271  36.1797064  47.5015798
  31.7075528  36.0124483  46.3222341  33.2890781  36.0937783  47.9459894
  33.4290744  36.2693425  48.9307115  34.4765053  35.8230871  47.1060465
  35.3627921  35.8165361  47.7405163  34.3825395  34.4641647  46.3744513
  33.4466018  34.4390483  45.8163392  35.2204136  34.3890825  45.6813210
  34.4234775  33.3021246  47.3423030  35.3722728  33.3128560  47.8787480
  33.6032455  33.3964475  48.0539382  34.2872021  32.0011442  46.5869883
  33.3415197  31.9945899  46.0450097  35.1112319  31.9050159  45.8799992
  34.3141029  30.8532744  47.4985980  34.9876947  30.8533090  48.2511759
  33.5192533  29.7925684  47.3564085  32.5933584  29.7495409  46.3872979
  32.4932476  30.5297211  45.7537390  32.0003377  28.9371516  46.2953758
  33.6193134  28.7876025  48.2094504  34.2945196  28.8310567  48.9593226
  33.0200926  27.9809981  48.1073597  34.6102932  36.9637851  46.1300497
  34.5539238  36.7733712  44.8870637  34.7743370  38.1508213  46.7150392
  34.8110880  38.2090501  47.7226890  34.9717150  39.3931922  45.9319074
  35.1297832  39.2153427  44.8681954  33.7955491  40.3555361  46.0967645
  33.6717000  40.5971495  47.1524082  34.0689044  41.6676279  45.2905797
  34.1924120  41.4268568  44.2347028  33.2279501  42.3505546  45.4110269
  34.9771294  42.1411845  45.6633709  32.4775700  39.6831389  45.7048997
  32.3093953  38.8139540  46.3407745  31.6570662  40.3894435  45.8314188
  32.5263311  39.3664948  44.6630457  36.2034681  40.0711748  46.5092659
  36.3397065  40.2535345  47.7468595  37.1316473  40.4703206  45.6194659
  37.1100122  40.1276261  44.6696282  38.2591113  41.2596795  46.0335330
  37.9734429  41.7970759  46.9377995  39.5687656  40.4218965  46.3351472
  39.3016926  39.5756335  46.9680858  40.2173659  39.9045951  45.0300376
  40.4851515  40.7503662  44.3967433  41.1139707  39.3334540  45.2708628
  39.5107752  39.2648391  44.5013197  40.5351160  41.2228844  47.0142901
  41.3202552  40.6984923  47.1879844  38.5030426  42.3847108  45.0125143
  37.8455965  42.4412140  43.9753601  39.3708778  43.3145574  45.3559622
  39.9075394  43.2615107  46.2099410  39.5768976  44.4855696  44.4667444
  39.9016052  44.1611230  43.4781097  38.6560329  45.0615411  44.3752884
  40.6424202  45.3588090  45.0696404  40.8754136  45.3293586  46.2997557
  41.3508970  46.1088398  44.2307486  41.1953252  46.0397470  43.2351970
  42.3808673  47.0168652  44.7055548  42.1381958  47.3493711  45.7148365
  43.7714593  46.3143635  44.7335980  44.5070024  46.9196707  45.2633892
  43.6646256  45.3522806  45.2346800  44.3500541  46.0284184  43.3679123
  45.2863832  46.9088407  42.8053669  45.5786956  47.7926160  43.3724601
  45.8481504  46.6692826  41.5313659  46.5779514  47.3507599  41.0942391
  45.4429101  45.5123318  40.8188926  45.8472865  45.3220481  39.8247237
  44.5116574  44.6002141  41.3962242  44.2051020  43.6995216  40.8643625
  43.9841843  44.8782180  42.6786422  43.2801492  44.1858246  43.1401895
  42.4631426  48.2450989  43.8289057  41.9351981  48.2528015  42.6858985
  43.1310515  49.2654103  44.3795892  43.5090979  49.1880528  45.3129680
  43.3490753  50.5097992  43.6446204  42.9242080  50.4474120  42.6427747
  42.6527846  51.6508797  44.4032090  42.8345348  51.5248136  45.4705297
  43.0744144  52.6002504  44.0730219  41.2451755  51.6433861  44.1558280
  40.8316300  52.3628418  44.6384909  44.8409057  50.7722819  43.5787661
  45.5518983  50.5973841  44.5779534  45.3230898  51.2779411  42.4321096
  44.7353200  51.3971439  41.6194493  46.7037157  51.6281718  42.3264705
  47.2321894  50.9483162  42.9947601  47.2045544  51.4124737  40.8619245
  46.5911874  52.0027019  40.1811073  48.6363996  51.8417257  40.7437463
  49.2504963  51.2515820  41.4239788  48.9788749  51.6885904  39.7203398
  48.7221532  52.8974819  41.0008927  47.1805576  49.9044722  40.5527956
  47.8917714  49.4009367  41.2075686  46.1776847  49.5230704  40.7448320
  47.5873110  49.6174303  38.9703258  48.5903123  49.9981680  38.7776419
  47.5630316  48.5449528  38.7771894  46.8762263  50.1203040  38.3149050
  46.8201786  53.0799837  42.7560931  46.2496869  53.9678406  42.0746509
  47.4768553  53.3141504  43.8791918  47.9125533  52.5551208  44.3833156
  47.4960402  54.6673188  44.4898130  46.7507474  55.3022934  44.0108087
  47.2178841  54.6005788  45.9968700  47.1789975  55.6076653  46.4120386
  45.8463446  53.8935108  46.2200362  45.8846133  52.8861348  45.8055127
  45.6347743  53.8386350  47.2878974  45.0594239  54.4607390  45.7229375
  48.3017283  53.8618789  46.7626181  48.2732473  52.8150923  46.4600829
  49.2633045  54.2937046  46.4851344  48.1060127  53.9656357  48.3733834
  47.1447892  53.5335587  48.6516974  48.9070107  53.4208348  48.8730767
  48.1348441  55.0121719  48.6767487  48.7703852  55.4565547  44.2381572
  48.8372366  56.6326621  44.5880633  49.7892308  54.7803176  43.7116052
  49.6992023  53.7860781  43.5583666  51.0248909  55.4159647  43.3489225
  50.8081589  56.2181944  42.6435474  51.4759813  55.8355233  44.2481373
  52.0044911  54.4480058  42.7103741  51.6523975  53.3187472  42.3238740
  53.2303715  54.9265896  42.5665075  53.4364909  55.8754744  42.8444136
  54.3207402  54.1106916  42.0066346  55.1208466  54.0319608  42.7426579
  53.9394986  53.1156177  41.7773263  54.8742446  54.7291128  40.7422320
  54.3097929  55.6933152  40.2142527  55.9705130  54.1476270  40.2469351
  56.4032905  53.3732090  40.7297183  56.6101857  54.6499861  39.0162758
  56.3891860  55.7096106  38.8880017  58.1162667  54.4750592  39.0997358
  58.3187099  53.4166448  39.2636717  58.5393270  54.7814401  38.1430485
  58.7607965  55.3075882  40.2405526  58.6261707  56.3630816  40.0040988
  58.1948934  55.0620494  41.1391979  60.2444189  55.0243223  40.4795737
  60.9464608  54.4422874  39.6261648  60.7339241  55.4275927  41.5582018
  56.0455341  53.9206044  37.8116697  56.5355929  52.8621104  37.4653928
  54.9905837  54.4778006  37.2186831  54.6538069  55.3558790  37.5870025
  54.3074844  53.9045022  36.0596200  55.0506126  53.6613116  35.3002005
  53.5199460  52.6216980  36.4084549  52.9845365  52.1904408  35.5626103
  54.2417940  51.8984363  36.7878333  52.5221080  52.8262509  37.4811330
  51.2739258  53.3810463  37.2573980  50.6412269  53.4826437  38.4238234
  49.6204226  53.8623311  38.4673558  51.4535508  53.0640581  39.3812705
  51.2559610  53.0695206  40.3717392  52.6184074  52.6165868  38.8145187
  53.4009571  52.1898541  39.4419073  53.3255915  54.9641582  35.5684701
  53.1440183  56.0162016  36.2150618  52.6607056  54.6945356  34.4538847
  52.8390760  53.8436507  33.9398046  51.7951965  55.7061251  33.8434140
  52.0299029  56.6902720  34.2489595  52.0129951  55.7389690  32.2909805
  51.6295072  54.8095792  31.8699449  51.4532279  56.5804259  31.8826780
  53.4420043  55.8837146  31.9441342  53.8567612  56.7303918  32.4911399
  53.9708770  54.9739659  32.2283051  53.6063761  56.1222598  30.4213906
  54.6715804  56.2396244  30.2222314  53.2374044  55.2333216  29.9097774
  52.8997290  57.2920080  29.8975842  53.1122624  58.1715976  30.3461943
  52.0163050  57.2831751  28.9096864  51.6377990  56.1467400  28.3262882
  52.0277103  55.2685888  28.6376075  50.9626920  56.1686069  27.5753875
  51.4903775  58.4477137  28.4707876  51.7729235  59.3184685  28.8974654
  50.8170485  58.4422512  27.7179948  50.2957909  55.6940927  34.1658970
  49.5484553  56.5817573  33.7059209  49.8219097  54.7316568  34.9631840
  50.4626907  54.0569916  35.3560275  48.3902774  54.5670432  35.2294549
  47.8338762  54.8954718  34.3515873  48.0015317  53.1103116  35.5417588
  48.5564805  52.9309075  36.4625983  46.9326939  53.0348301  35.7417295
  48.4037122  52.0553157  34.4837382  49.4644652  52.1659349  34.2586444
  48.1319176  50.6077685  35.0196558  47.0712184  50.4962344  35.2445474
  48.4207717  49.8791420  34.2621813  48.7144721  50.4397896  35.9254779
  47.7303424  52.3104574  33.1447326  48.0197653  53.2935289  32.7733783
  48.0397501  51.5473209  32.4305962  46.6480587  52.2737045  33.2688704
  47.8886052  55.4431343  36.3487902  48.4592301  55.4789509  37.4315855
  46.8079096  56.1400946  36.0935212  46.4216259  56.2027681  35.1624164
  46.2165947  56.9583162  37.1426476  46.7227598  56.7222918  38.0786970
  46.3396821  58.5503853  36.8750593  45.8897448  59.0766089  37.7169295
  47.7838173  58.9815112  36.7241482  48.2343219  58.4560166  35.8821264
  47.8260279  60.0559966  36.5458271  48.3318349  58.7432137  37.6357356
  45.6537484  58.8607755  35.6911916  45.7193059  59.8033130  35.5211159
  44.7820774  56.5492747  37.3854107  44.0027071  56.2605593  36.4477485
  44.4411969  56.4912223  38.6646055  45.1584988  56.6298078  39.3620089
  43.1086723  56.0837590  39.1114274  43.1120794  55.8886153  40.1838110
  42.0919854  57.2255755  38.8167260  42.1639944  57.4453406  37.7515419
  41.0664592  56.9491385  39.0616314  42.4574316  58.4797636  39.5979111
  42.8570900  59.5286826  39.0135857  42.4023617  58.3786966  40.9086032
  42.6332850  59.1762313  41.4836793  42.1294193  57.5040489  41.3335676
  42.6446505  54.7450424  38.5731204  41.4414438  54.5393622  38.3201098
  43.6039541  53.8254927  38.4621832  44.5714321  54.0758794  38.6084437
  43.2853661  52.4219422  38.1530608  42.6124546  52.3635415  37.2975617
  44.5950085  51.6669986  37.8059426  45.1041321  52.2162844  37.0139972
  45.2224118  51.6503709  38.6971152  44.3327892  50.2489120  37.3475678
  44.2188058  49.9392584  35.9717642  44.3343437  50.7373700  35.2384373
  43.9564233  48.6043279  35.5386489  43.8906645  48.3671272  34.4768045
  43.8327433  47.5854177  36.4933962  43.5702407  46.2595484  36.0865083
  43.4950825  46.1674350  35.1338982  43.9202971  47.8859193  37.8723168
  43.7721820  47.0946329  38.6071829  44.1961646  49.1943549  38.2964223
  44.3076993  49.4107881  39.3588802  42.6426829  51.7250921  39.3716696
  43.1594959  51.7877375  40.4908174  41.5218625  51.0512615  39.1247165
  41.1120485  51.0682361  38.2017518  40.8370496  50.2813534  40.1796775
  41.5495327  50.0030680  40.9562239  39.7071460  51.1311411  40.8240103
  40.1658997  52.0515462  41.1852566  38.9943543  51.3668981  40.0337910
  38.9917185  50.4503340  41.9567129  38.6304771  49.4860125  41.5993761
  39.7066800  50.2933263  42.7643518  37.7794459  51.2997437  42.4879785
  38.0972102  52.3337941  42.6216373  36.9681190  51.2605710  41.7611265
  37.2741879  50.7178487  43.8766716  38.1724861  50.5605155  44.4736700
  36.6739625  51.5090572  44.3259128  36.4628300  49.4289608  43.8311594
  37.0189840  48.6955709  43.4153086  36.2015264  49.1623397  44.7696335
  35.6301873  49.5746570  43.2783685  40.2736653  49.0442188  39.5360083
  39.6317683  49.1372533  38.4845123  40.4774290  47.8763887  40.1588030
  41.0849797  47.7925545  40.9612701  39.8997463  46.6565952  39.5962378
  39.1627455  46.9390037  38.8444569  40.9607501  45.7241072  38.9294889
  40.4477746  44.8958592  38.4406529  41.5178138  46.2950085  38.1866217
  41.8518403  45.2185314  39.8983626  42.4966582  44.6482378  39.4734216
  39.0968724  45.9003803  40.6508839  39.3347580  46.0537355  41.8766207
  38.1702469  45.0769928  40.1696531  37.9769537  45.0366582  39.1791430
  37.4046405  44.2162862  41.0570431  37.8445735  44.1421055  42.0515557
  35.9581639  44.7639766  41.1939434  35.6104206  45.0108747  40.1908406
  34.9626281  43.7636950  41.8572971  35.3094841  43.5166674  42.8606760
  33.9743782  44.2196487  41.9170381  34.9071609  42.8545824  41.2585157
  35.9711094  46.0529593  41.9847512  36.5878361  46.7895692  41.4698182
  34.9537397  46.4329493  42.0778433  36.3811000  45.8667310  42.9773879
  37.4160690  42.8206739  40.4100581  37.1984412  42.6803635  39.2160145
  37.6405876  41.7987387  41.2406698  37.7017326  41.9834842  42.2317449
  37.7292679  40.4229577  40.7910573  37.5724864  40.3505355  39.7148260
  39.1153482  39.8707750  41.1208219  39.3031071  39.9958098  42.1872239
  39.2023489  38.3185742  40.7427512  39.0151450  38.1927856  39.6763406
  40.1958636  37.9405100  40.9837805  38.4553914  37.7634516  41.3101963
  40.0692305  40.6167625  40.3829735  40.9504313  40.2872984  40.5741252
  36.6796070  39.5866120  41.6064291  36.6808498  39.6309967  42.8611420
  35.8186269  38.8598909  40.9172095  35.8309555  38.9148956  39.9087841
  34.7832825  38.0576728  41.5518734  34.9510611  38.0651328  42.6288571
  33.3817611  38.5786434  41.2748001  32.6620964  37.9318178  41.7765966
  33.2196365  40.0148213  41.7846133  33.9387080  40.6623667  41.2828956
  32.2086491  40.3636825  41.5741387  33.3960843  40.0413050  42.8599111
  33.1068805  38.5767639  39.8612457  32.2192037  38.9083901  39.7074462
  34.9105512  36.6126878  41.1422076  35.2353568  36.3282225  39.9888985
  34.6735875  35.7015562  42.0977097  34.4269197  35.9930759  43.0327341
  34.8459668  34.2376079  41.8326344  35.1817925  34.0547494  40.8119077
  35.8853734  33.6418142  42.8086492  35.5296066  33.8058677  43.8258098
  36.0968798  32.1574950  42.5806833  36.4531151  31.9926807  41.5638088
  36.8353485  31.7821668  43.2891275  35.1544077  31.6292793  42.7250309
  37.2239329  34.3765693  42.6514886  37.0862192  35.4349403  42.8728206
  37.9543036  33.9536886  43.3412931  37.5831196  34.2635632  41.6285931
  33.4942551  33.5179492  41.9341522  32.7644539  33.7086558  42.9360520
  33.1357651  32.7451713  40.9109963  33.7911814  32.5962947  40.1570967
  31.8164036  32.1309724  40.8117439  31.2324092  32.3181551  41.7128611
  31.0819542  32.7527029  39.6122084  31.6484262  32.4857116  38.7200625
  30.0454062  32.4378899  39.4915383  31.0702565  34.2403243  39.6801163
  30.1044987  34.9307974  40.3983139  29.3266676  34.5082427  40.8846533
  30.3747165  36.2299156  40.3378039  29.7295396  36.9511764  40.8394299
  31.4780866  36.4014013  39.6111878  31.9436682  35.1752844  39.2029878
  32.8565493  35.1084079  38.6111458  31.8507105  30.6332035  40.6510197
  32.5946116  30.0986097  39.8093222  31.0357709  29.9477877  41.4705321
  30.5625535  30.4532655  42.2058258  30.7961052  28.4759046  41.3540568
  31.7233859  27.9548638  41.1158001  30.2681525  27.9488930  42.6947838
  30.9591552  28.2793954  43.4702724  29.2912639  28.4026044  42.8619200
  30.1400542  26.4537615  42.7431758  29.3700096  26.1236076  42.0459453
  31.0907859  25.9902200  42.4798499  29.7566799  26.0514607  44.1398878
  30.4236931  26.5364900  44.8525861  28.7297327  26.3593327  44.3365950
  29.8535295  24.6088503  44.3172331  30.7212516  24.2527442  44.6918611
  28.8889635  23.7478069  44.0286873  27.7322012  24.1716633  43.5251481
  27.5873513  25.1576870  43.3612095  27.0045157  23.5053513  43.3092737
  29.0881821  22.4493386  44.2409275  29.9694355  22.1318934  44.6187120
  28.3572225  21.7872083  44.0232574  29.7898854  28.0848538  40.2854643
  28.7078892  28.7184179  40.1301014  30.1496158  27.0494245  39.5152564
  31.1026807  26.7169759  39.5505353  29.2241911  26.4030541  38.5867532
  28.2122403  26.7620787  38.7742531  29.5898784  26.7110800  37.1399073
  30.6567095  26.6053289  36.9429620  29.0327625  26.0315490  36.4949580
  29.2117322  28.1061277  36.7239263  27.9825725  28.3447378  36.1463367
  27.3020006  27.5107158  35.9750795  27.6058699  29.6406478  35.7813127
  26.6454942  29.8343163  35.3035348  28.4942784  30.7093755  36.0416055
  28.1934297  31.7281661  35.7973602  29.7450533  30.4687620  36.6053831
  30.4551240  31.2817380  36.7569414  30.0806493  29.1820463  36.9735243
  31.0330537  28.9870710  37.4664851  29.2314832  24.8899971  38.8200157
  30.2667438  24.3240253  39.1285356  28.0701151  24.2712668  38.6829800
  27.2334034  24.8024797  38.4884913  27.9528326  22.8152031  38.8235768
  28.9019936  22.3503188  38.5569775  27.5981743  22.4154896  40.2589888
  28.4326757  22.7317396  40.8848423  26.7072473  22.9827254  40.5284189
  27.3286961  20.8775689  40.4805479  26.3649720  20.6300717  40.0354842
  28.1176182  20.3292376  39.9657334  27.3210254  20.4866166  41.9740018
  27.1045391  21.3801313  42.8337384  27.5216626  19.2785657  42.2930721
  26.8809817  22.3409060  37.8837966  25.8081682  22.9545629  37.8023822
  27.1811164  21.2682657  37.1656720  28.0839265  20.8372379  37.3044102
  26.2838712  20.6927318  36.1611617  25.2573934  20.7001638  36.5277504
  26.3491235  21.5194746  34.8654072  26.1182103  22.5438445  35.1577164
  27.3851140  21.4622536  34.5314173  25.4278594  21.0962043  33.7328036
  25.6782966  20.0829422  33.4186668  24.3932249  21.1248145  34.0745855
  25.6010251  22.0527744  32.5526370  25.2674007  23.0399020  32.8725947
  26.6624641  22.0903100  32.3076111  24.8124459  21.6248935  31.3246265
  25.2298468  20.6963933  30.9350569  23.7709722  21.4654433  31.6039245
  24.8895707  22.6872297  30.2713917  25.8545066  22.8348292  30.0121375
  24.3637485  22.3955434  29.4598930  24.5024570  23.5475683  30.6320295
  26.7741974  19.2581359  35.9685381  27.9344542  19.0421284  35.6099314
  25.8901178  18.2842262  36.2395718  24.9217134  18.5576391  36.3263911
  26.2350621  16.8583649  36.4234383  25.3121093  16.2795245  36.3887806
  27.1984431  16.3099970  35.3606054  28.1054109  16.9113297  35.4231154
  27.4240176  15.2824628  35.6458941  26.6687684  16.3357192  33.9286082
  25.6500623  15.9482246  33.9422705  26.6584508  17.3714495  33.5891152
  27.5250963  15.4913123  32.9707640  28.7827820  15.4471099  33.1489967
  26.9286733  14.8779053  32.0393948  26.8823906  16.7291230  37.7765541
  26.4437551  17.3459344  38.7512298  27.9315539  15.9276833  37.8510172
  28.1634263  15.2636988  37.1261317  28.7282349  15.9328578  39.0544799
  28.1824244  16.4512948  39.8427776  29.0285717  14.4962755  39.5260898
  28.0919447  13.9745380  39.7226071  29.5828477  13.9672203  38.7508616
  29.8596545  14.5006551  40.8011461  30.2022427  15.5613788  41.3187751
  30.1838238  13.3086952  41.3074760  30.7343634  13.2552181  42.1525476
  29.8770506  12.4658458  40.8431530  30.0112682  16.7429981  38.8044113
  31.0298965  16.5183437  39.4761485  29.9534104  17.7023634  37.8660490
  29.1562521  17.7661668  37.2491478  31.1619500  18.4845228  37.5322740
  31.9858867  18.1542979  38.1648710  31.5709059  18.3097832  36.0633750
  32.6547076  18.4258563  36.0631241  31.3166269  17.2764781  35.8273183
  30.9621860  19.2327921  35.0185695  29.9748104  18.8734258  34.7286624
  30.8781711  20.2450316  35.4140626  31.9004137  19.2381506  33.7712580
  31.9498013  18.2454336  33.3238513  31.5475014  19.9536791  33.0285795
  33.2525205  19.6304307  34.1985162  33.7302687  18.9960365  34.8225355
  33.8780527  20.7520160  33.8274667  33.2809202  21.5794239  32.9633741
  32.3666179  21.3512027  32.5999644  33.7468974  22.4288591  32.6780239
  35.0999194  21.0358528  34.3193126  35.5402070  20.3991231  34.9680207
  35.5700037  21.8840601  34.0370647  31.1192395  19.9502784  38.0352751
  30.1637125  20.6645230  37.8154049  32.1538605  20.3431186  38.7654135
  32.9534833  19.7351084  38.8704190  32.1867974  21.6502744  39.4184931
  31.2549837  22.2093989  39.3336273  32.5391418  21.4667723  40.8990029
  33.4396892  20.8573792  40.9748638  32.7827516  22.8224418  41.5681235
  31.8824273  23.4322641  41.4930675  33.0314265  22.6703481  42.6184230
  33.6080504  23.3310658  41.0698438  31.4322473  20.6344589  41.6040930
  30.5439909  21.2617634  41.6788627  31.2152722  19.7719034  40.9739983
  31.8513078  20.1409861  43.0462347  32.0680048  21.0030606  43.6770832
  31.0359989  19.5659488  43.4852139  32.7392880  19.5132020  42.9722188
  33.2699059  22.4833996  38.7239182  34.3779834  22.0111097  38.5781393
  32.9647480  23.7042021  38.2791744  32.0199526  24.0552103  38.2139501
  34.0627820  24.5443624  37.7536224  35.0128794  24.1940947  38.1570164
  34.1267861  24.4791351  36.2177807  35.0431259  24.9344514  35.8421376
  34.1096104  23.4230429  35.9485701  32.9816390  25.1341264  35.4750288
  32.9809131  26.3918923  34.8956415  33.8856858  26.9856041  35.0259962
  31.7846363  26.6296641  34.2524165  31.5369960  27.4777321  33.7629735
  30.9795928  25.5379107  34.4035871  29.6709356  25.3189468  33.9463518
  29.1778299  26.1048436  33.3742402  29.0866354  24.1061800  34.2555639
  28.0717641  23.8955005  33.9182952  29.7740232  23.1308769  34.9996276
  29.2976359  22.1803072  35.2395689  31.0774520  23.3435867  35.4525559
  31.5737606  22.5385805  35.9945370  31.6966786  24.5714310  35.1719236
  33.8841144  25.9771173  38.2831489  32.9227432  26.2745070  39.0316318
  34.8372656  26.8339330  37.9325156  35.5819494  26.5301677  37.3215557
  34.8309401  28.2218537  38.3769005  33.9433729  28.4284669  38.9749261
  36.0770746  28.4926195  39.2369614  36.9601668  28.2633576  38.6405660
  36.1404232  29.9061916  39.6923247  35.2578269  30.1360751  40.2892142
  37.0355681  30.0540827  40.2964298  36.1743914  30.5664465  38.8257163
  36.0811300  27.6459939  40.4126695  36.8648476  27.8289610  40.9360338
  34.8799965  29.1680920  37.1490248  35.5225267  28.8684327  36.1356773
  34.1985398  30.3065393  37.2839411  33.5003968  30.3911688  38.0088781
  34.3979235  31.4450980  36.3695691  35.1684408  31.1833374  35.6443907
  33.1158948  31.8219396  35.6096943  32.3103688  31.9653282  36.3298796
  33.3219033  33.1461075  34.7825196  34.1270202  33.0033323  34.0617540
  32.4009445  33.3918275  34.2537880  33.5805370  33.9609781  35.4586824
  32.7347620  30.6778424  34.6331251  32.5653373  29.7600980  35.1962792
  31.8256501  30.9464435  34.0951021  33.5451990  30.5221847  33.9210414
  34.8928207  32.5912509  37.2349968  34.3282838  32.9032675  38.3126432
  35.9970032  33.1816737  36.8059712  36.5313651  32.8041513  36.0365340
  36.4547123  34.3972782  37.4220507  35.9704389  34.5418487  38.3878032
  37.9659414  34.3605573  37.6347764  38.4463891  34.1415167  36.6812092
  38.5000232  35.7431123  38.1887613  38.0203373  35.9626259  39.1426042
  39.5793124  35.6859705  38.3300765  38.2688602  36.5345136  37.4757752
  38.3390542  33.2360903  38.6363501  38.0111470  32.2742100  38.2421863
  39.4194813  33.2202063  38.7796146  37.8490526  33.4226793  39.5919566
  36.1097010  35.5740964  36.4749624  36.3392559  35.4761540  35.2374840
  35.6065891  36.6627017  37.0543378  35.3913709  36.6516621  38.0410792
  35.3890804  37.9278954  36.2980238  35.6090145  37.7613575  35.2435129
  33.9566805  38.4063948  36.4242727  33.8429482  38.5411515  37.4999143
  33.8456158  39.3685900  35.9243278  32.8899564  37.4458553  35.9180270
  33.0329967  36.4752839  36.3930337  31.4681277  37.9828496  36.2536836
  31.3241674  38.9532500  35.7786074  30.7183702  37.2832226  35.8842428
  31.3647244  38.0886686  37.3335959  33.0838753  37.1952367  34.3933743
  34.0690893  36.7631170  34.2180875  32.3172655  36.5069957  34.0373758
  33.0012001  38.1399253  33.8559479  36.2871151  38.9730379  36.9126725
  36.3356635  39.0849187  38.1333788  37.0159762  39.7285837  36.0735319
  37.0466464  39.5148378  35.0868854  37.8255740  40.8337933  36.5657557
  37.5078629  41.0834118  37.5781041  39.3301411  40.4842140  36.5926097
  39.4773657  39.6433393  37.2703663  39.6361082  40.1972089  35.5865718
  40.1613336  41.6544473  37.0559098  40.1906050  42.4091233  36.2699656
  39.6612630  42.0638984  37.9336218  41.5911910  41.2478265  37.4264828
  41.7436040  40.1882650  38.0145352  42.5493033  41.9593710  37.1077976
  37.5520323  42.0265798  35.6786766  37.5989184  41.9024181  34.4444633
  37.1927764  43.1631172  36.2852358  36.9618858  43.2056947  37.2675677
  37.0608478  44.3931024  35.4819600  37.4110704  44.2192218  34.4645078
  35.5834291  44.8155279  35.4275849  35.4967479  45.6880082  34.7800019
  35.0037936  43.9932723  35.0080392  35.0903430  45.1313977  36.7091649
  34.1684073  45.3905757  36.6423736  37.9398678  45.4922570  36.0695876
  38.3410016  45.4110137  37.2265163  38.2201164  46.5353664  35.2917742
  37.9300229  46.5560171  34.3245521  38.9327723  47.6899149  35.8242339
  38.8221622  47.6910126  36.9086063  40.4624348  47.6926855  35.4763791
  40.8704361  48.6094860  35.9019503  40.9385312  46.8316787  35.9455268
  40.7322709  47.6659944  33.9657987  40.7489801  48.8583458  33.2080804
  40.6037801  49.8087910  33.7215687  40.9430262  48.8350143  31.8526599
  40.9139260  49.7654006  31.2855299  41.1278319  47.6406774  31.2025881
  41.3431285  47.6689038  29.8412342  41.3404933  48.5581036  29.4794105
  41.1440705  46.4378374  31.9111594  41.3203703  45.4909107  31.4009157
  40.9319545  46.4581595  33.2829024  40.9187986  45.5251052  33.8462288
  38.3329523  48.9519922  35.2152201  37.6450489  48.8844909  34.1710489
  38.6368252  50.0646958  35.8821212  38.9586335  49.9925531  36.8367594
  38.4560228  51.4006802  35.3093156  38.2899733  51.3605197  34.2327870
  37.2556379  52.1602887  35.9735001  36.3359980  51.6039858  35.7921476
  37.4852585  52.2917707  37.4922577  38.4045425  52.8484006  37.6744143
  36.6454594  52.8208143  37.9427584  37.5683579  51.2991905  37.9349549
  37.0567866  53.5652294  35.3057563  36.8496616  53.4370881  34.2433152
  36.2195858  54.0779632  35.7793579  37.9627049  54.1585450  35.4298105
  39.7680454  52.1203113  35.4884377  40.4869065  51.8915326  36.4724946
  40.1369632  52.9775186  34.5265098  39.5670104  53.1415082  33.7089766
  41.4067553  53.7018473  34.6455943  41.6171060  54.0880562  35.6429379
  42.6092922  52.7851275  34.1960267  42.6396902  51.9091750  34.8440100
  42.4507149  52.3326379  32.7246708  42.4207018  53.2080905  32.0759930
  43.2949096  51.7024727  32.4447999  41.5246764  51.7681821  32.6153820
  43.9421450  53.4383544  34.4370000  44.0568620  53.6496913  35.5001457
  44.7391616  52.7696184  34.1119517  43.9979086  54.3699246  33.8738231
  41.3138718  54.9372320  33.7445875  40.5473211  54.9371939  32.7924290
  42.0828764  55.9588392  34.0738394  42.6171342  55.9289261  34.9304450
  42.2236726  57.1294542  33.2098152  41.2412697  57.4982326  32.9148810
  42.9581530  58.2411781  33.9581423  43.9498297  57.8611483  34.2036092
  43.0522065  59.0886619  33.2791539  42.2564496  58.6883074  35.2331864
  41.0397698  58.4515731  35.3785276  42.9755467  59.2945459  36.0845514
  43.0628214  56.8196435  31.9551026  43.9867538  56.0062114  31.9777354
  42.7975450  57.4995903  30.8354014  41.9987854  58.1117142  30.7494558
  43.7018639  57.3778562  29.6960884  44.0106909  56.3382624  29.5866818
  43.0083644  57.8328508  28.3766687  42.5212035  58.7842602  28.5901954
  43.7998138  57.9870475  27.6432307  41.9768620  56.8450004  27.8155454
  41.9056756  57.0656360  26.7504852  42.4113139  55.8547749  27.9526839
  40.3184831  56.8730179  28.5412695  39.6616052  58.4227043  27.8039965
  39.6649657  58.3385438  26.7172561  38.6418711  58.5874588  28.1519895
  40.2877785  59.2626648  28.1047862  44.8791319  58.2902356  29.9883092
  44.6498353  59.4950919  30.2689342  46.1275018  57.7625162  29.9312581
  46.5573929  56.3574084  29.7856670  46.1261715  55.9365506  28.8773570
  46.2202537  55.7818969  30.6477706  48.0609233  56.4643129  29.7176821
  48.3579270  56.3277922  28.6778505  48.4802887  55.6608833  30.3232684
  48.4794660  57.7803821  30.2279937  49.2515234  58.1485942  29.5523857
  48.8679221  57.7601314  31.2462232  47.2531165  58.6854635  30.1566039
  47.0609031  59.2532696  31.0669602  47.4236987  59.6559919  28.9737002
  46.8677685  59.4252405  27.8967803  48.1963543  60.7073371  29.2082033
  48.6849841  60.7548170  30.0908618  48.3595408  61.8365605  28.2482395
  47.3938910  62.2858176  28.0163176  49.2604235  62.9095998  28.8906668
  48.8277336  63.1140117  29.8700005  50.2370792  62.4421056  29.0159384
  49.4224546  64.2541830  28.1002371  49.3243784  64.0544810  27.0331847
  48.6179074  64.9159583  28.4209493  50.7877240  64.9312718  28.3749413
  51.1798036  65.1075800  29.5594062  51.4849457  65.2701458  27.3954030
  48.9662029  61.2929037  26.9823930  49.9379944  60.5446854  27.0421562
  48.3747476  61.6229524  25.8238506  47.5558736  62.2138173  25.8032733
  48.9028030  61.1341454  24.5626388  48.6914465  61.8907438  23.8070023
  49.9814421  61.0304982  24.6805134  48.3280227  59.8111487  24.1085661
  48.5990270  59.3826956  23.0002567  47.5169931  59.1562234  24.9436038
  47.3026152  59.5320424  25.8562382  46.9711620  57.8554051  24.5877302
  47.3173860  57.5624030  23.5965804  47.4326197  56.8031401  25.5975540
  47.2157139  57.1869787  26.5944086  46.8994965  55.8645316  25.4462471
  48.8813739  56.5438695  25.4971750  49.6286860  56.9567234  26.3670958
  49.3154362  55.8832823  24.4033156  50.2997511  55.6848504  24.2944635
  48.6540038  55.5903263  23.6984861  45.4579452  57.8442053  24.5004064
  44.7482853  58.5015790  25.2903486  44.9631752  57.0645498  23.5540000
  45.5989557  56.5745901  22.9409567  43.5569010  56.9028884  23.3426536
  43.0336717  57.8468029  23.4954793  43.3282475  56.4472098  21.9113121
  42.2561296  56.4245830  21.7159905  43.8052790  57.1568969  21.2353792
  43.8823476  55.1353641  21.6984580  43.7277308  54.8662441  20.7900154
  42.9244978  55.8858028  24.3016849  43.6647992  55.1469842  25.0209859
  41.5833089  55.8352955  24.3063956  41.0328518  56.5540180  23.8585851
  40.8703266  54.7281278  24.9946259  41.1272951  54.7784361  26.0527069
  39.3471529  54.7617251  24.8594474  39.0969835  54.8101883  23.7996522
  38.9437604  53.8432606  25.2858245  38.7542102  55.9437314  25.5673479
  39.1285251  55.9299937  26.5909691  39.1332538  56.8275675  25.0542602
  37.2386532  55.9806971  25.5842767  36.5850363  54.8980181  25.5978804
  36.7125509  57.1281997  25.5975501  41.3316279  53.3879373  24.4603034
  41.6175422  52.4812899  25.2440077  41.4215006  53.2649153  23.1357969
  41.1069964  53.9915907  22.5087966  41.8932026  52.0083739  22.5586298
  41.2636173  51.1835456  22.8923659  41.8339184  52.0820575  21.0185748
  42.2074643  53.0696950  20.7481400  42.4869986  51.3187825  20.5954938
  40.3924938  51.9008872  20.4570445  39.4703537  51.3756464  21.1606386
  40.1938365  52.2656618  19.2520823  43.3005920  51.6175732  23.0347391
  43.5509160  50.4158046  23.3758490  44.2198305  52.5834181  23.0580263
  43.9769095  53.5416831  22.8511040  45.6010212  52.2893936  23.4966922
  46.0511590  51.5787027  22.8035879  46.4576198  53.5330405  23.5369568
  45.8638463  54.2792030  24.0649472  47.3630864  53.3212046  24.1056005
  46.8418798  54.0750427  22.1383100  46.7500955  53.3343387  21.1172286
  47.2762200  55.2613764  22.1482096  45.5556752  51.7994042  24.9451880
  46.2777741  50.8393324  25.3257078  44.7227027  52.4785884  25.7417095
  44.1178394  53.1940856  25.3644781  44.7139820  52.2487909  27.2246259
  45.7471135  52.2664422  27.5716520  43.9440495  53.3946220  27.9110805
  42.8938228  53.3545008  27.6220919  44.0629317  53.2397622  29.4518487
  45.1129165  53.2802527  29.7416628  43.5199021  54.0479850  29.9417404
  43.6395316  52.2822075  29.7550348  44.5944977  54.6427557  27.5312738
  44.1379925  55.3798296  27.9434938  44.1192573  50.9171443  27.5493917
  44.7292821  50.1133499  28.3412542  42.9651471  50.6428166  26.9394245
  42.4075642  51.3567024  26.4926944  42.3985705  49.2957513  27.0661955
  42.3426924  49.0352660  28.1231365  40.9912421  49.1936393  26.4606173
  41.0433566  49.5376962  25.4276564  40.6918153  48.1457397  26.4793267
  39.9502932  50.0422057  27.2357957  39.8689290  49.6189174  28.2369488
  40.3442098  51.0564055  27.3016026  38.5545589  50.0742989  26.5758982
  37.9386335  50.8337242  27.0575704  38.6554074  50.3076261  25.5159513
  37.8968789  48.7914905  26.7078857  38.3297647  48.1218969  27.3278483
  36.7807977  48.4414063  26.0753852  36.1896014  49.2816301  25.2261085
  36.5917013  50.1931634  25.0602088  35.3422521  49.0028972  24.7523927
  36.2509966  47.2433497  26.2963790  36.6982618  46.6080015  26.9416592
  35.4033806  46.9733670  25.8180955  43.3250826  48.2063961  26.5334754
  43.4181811  47.1356847  27.1312468  44.0199601  48.4345985  25.4247036
  43.9428474  49.2905645  24.8941611  44.9140113  47.3851192  24.9250321
  44.3408354  46.4699155  24.7768068  45.5722645  47.7770853  23.5855373
  45.9447964  48.7963232  23.6878767  46.4098959  47.0995563  23.4199229
  44.6162104  47.7022991  22.3996370  44.0380900  46.7783235  22.4117467
  43.9373010  48.5548456  22.3809679  45.6565077  47.7355686  20.9133531
  47.3242268  48.0431585  21.5877680  47.5947699  47.2378325  22.2706702
  48.0450902  48.0839565  20.7711946  47.3302827  48.9916586  22.1248082
  46.0252984  47.0473065  25.9051660  46.3785702  45.8800383  26.0725938
  46.6434630  48.0899606  26.4647552  46.3931434  49.0212786  26.1646116
  47.7035881  47.9438541  27.4745061  48.5337250  47.3756021  27.0549092
  48.2352098  49.3446085  27.9288931  48.6710252  49.8248782  27.0528194
  47.4605379  49.9872434  28.3472276  49.3377243  49.2581408  28.9707742
  50.6562358  49.1232779  28.5817698  50.8875518  49.1199062  27.5166025
  51.6980550  48.9910883  29.5336310  52.7329707  48.8967694  29.2047630
  51.3995294  48.9820728  30.8764140  52.2005009  48.9016620  31.6113145
  50.0647190  49.0763162  31.3005380  49.8278946  49.0287529  32.3634360
  49.0314197  49.2322189  30.3545164  47.9983572  49.3326591  30.6873730
  47.1652188  47.1565778  28.7038248  47.6939742  46.0798773  29.0344948
  46.1032887  47.6627344  29.3499441  45.6888398  48.5402096  29.0700003
  45.5742203  46.9897324  30.5624736  46.4088975  46.8691207  31.2530286
  44.4776054  47.8612454  31.2525654  43.6312045  47.9833266  30.5766943
  44.1441167  47.3698125  32.1665562  44.8909236  48.8398138  31.4968421
  45.0390461  45.5746899  30.2438998  45.2674308  44.6077382  31.0505768
  44.3583271  45.4251797  29.1039115  44.1594053  46.2199261  28.5132275
  43.8356408  44.0855356  28.6904108  43.1686134  43.6996637  29.4613041
  43.0489736  44.1853944  27.3598860  43.6675565  44.7308926  26.6472248
  42.9030391  43.1645626  27.0067493  41.6951693  44.8762282  27.4908037
  41.2254826  45.2376345  28.6040183  41.1100095  45.0602202  26.3918246
  44.9453059  43.0379410  28.5185564  44.8071585  41.8547273  28.9625434
  46.0828405  43.4450843  27.9330052  46.1733608  44.3792121  27.5597618
  47.2013426  42.5322146  27.7818657  46.9174594  41.6764440  27.1693576
  48.3865160  43.2554541  27.1013581  48.6353504  44.1368803  27.6923483
  49.6264017  42.3436499  26.9912415  49.3784538  41.4621728  26.3999551
  50.4370570  42.8886739  26.5076239  49.9408180  42.0350690  27.9882474
  47.9450937  43.6458980  25.7997511  48.6569485  44.1004835  25.3434453
  47.6222393  41.9843953  29.1383974  47.8197874  40.7420408  29.3080999
  47.7422611  42.8811222  30.1236250  47.6058830  43.8686013  29.9611891
  48.1806621  42.4420395  31.4781674  49.0401855  41.7775145  31.3902742
  48.5759230  43.6577237  32.4016639  47.7535515  44.3731277  32.4029117
  48.8663931  43.1880531  33.8801369  49.6890120  42.4729314  33.8797490
  49.1357939  44.0506313  34.4896306  47.9752686  42.7157579  34.2935810
  49.8082030  44.3324186  31.8317474  49.5938468  44.6911564  30.8250396
  50.0877904  45.1743419  32.4650686  50.6301863  43.6175205  31.7948038
  47.1029129  41.5813697  32.1539921  47.4076396  40.4776305  32.6904801
  45.8732579  42.0990967  32.2005119  45.6777408  43.0071689  31.8039298
  44.7859946  41.4010955  32.9293685  45.1341842  41.2085600  33.9441558
  43.4722945  42.2575547  33.0037449  43.1659272  42.5370146  31.9957069
  42.3445677  41.4316864  33.6762393  42.6500381  41.1522347  34.6845525
  41.4350378  42.0303761  33.7254984  42.1550425  40.5312791  33.0919033
  43.7137829  43.5215909  33.8593510  44.5065082  44.1194177  33.4095825
  42.7974589  44.1100592  33.9057746  44.0079574  43.2281309  34.8670431
  44.5114681  40.0295230  32.3087995  44.3590139  39.0122300  33.0198288
  44.5231487  39.9491459  30.9854824  44.6786181  40.7351207  30.3705254
  44.2041518  38.6489399  30.3853879  43.3015941  38.2525818  30.8505641
  43.9647321  38.7623129  28.8531390  44.8165075  39.3007359  28.4375927
  43.9497664  37.7465554  28.4580280  42.6618709  39.4837617  28.4626081
  41.8358778  38.9145566  28.8890372  42.6917563  40.4746510  28.9157609
  42.4531014  39.6251432  26.8952012  42.1588374  38.6518195  26.5025836
  41.6515275  40.3433586  26.7227323  43.7121100  40.0943627  26.1911526
  43.8313676  41.1597639  26.3881260  44.5571053  39.5505146  26.6134219
  43.6582704  39.8607312  24.6957942  42.8756006  40.3649350  24.3042509
  44.5151106  40.1879380  24.2728751  43.5481954  38.8735195  24.5130498
  45.2892177  37.5996543  30.6647153  44.9672434  36.4251596  30.8710858
  46.5643972  38.0062653  30.6293637  46.8111600  38.9548742  30.3857480
  47.6259910  37.0804654  30.9310822  47.5559058  36.1998376  30.2925824
  48.9792099  37.7632836  30.6789971  48.8676717  38.1503203  29.6661491
  49.1268982  38.5930183  31.3702485  50.2054385  36.8176613  30.7381223
  50.2363342  36.3587320  31.7263177  50.1334234  35.7262676  29.6724321
  50.1029627  36.1844475  28.6838765  51.0116739  35.0851554  29.7482735
  49.2341568  35.1290844  29.8234027  51.4972967  37.6307193  30.6407416
  51.5473351  38.3351344  31.4710397  52.3543219  36.9585450  30.6830580
  51.5121721  38.1787209  29.6986313  47.5147400  36.6465480  32.4069541
  47.7378115  35.4615684  32.7523572  47.2216448  37.6003263  33.2817033
  47.0507247  38.5539424  32.9962176  47.1520892  37.2722595  34.7443404
  48.0964994  36.8394078  35.0742310  46.8868570  38.5349257  35.5528031
  46.0876430  39.0783704  35.0487950  46.5672059  38.2724140  36.5612726
  48.1314938  39.4606465  35.6514562  49.2219912  39.0603042  35.3586927
  47.9196045  40.6868419  36.1070401  48.6926246  41.3312916  36.1920354
  46.9860628  40.9713203  36.3671800  46.0241675  36.2584033  34.9716668
  46.1879199  35.3126761  35.7725834  44.8713505  36.4738195  34.3188255
  44.6928813  37.3097178  33.7807529  43.7611084  35.5032135  34.5015891
  43.6454686  35.3271191  35.5710363  42.4070653  35.9666697  33.9295143
  42.6003485  36.1995396  32.8823694  41.6772893  35.1595143  33.9929745
  41.8499298  37.2231075  34.6430527  42.6051502  38.0078634  34.6866547
  40.6596110  37.7094004  33.8272161  39.9037185  36.9252966  33.7835527
  40.2350689  38.5968957  34.2964890  40.9868209  37.9545849  32.8168110
  41.4704462  36.9036086  36.1079826  42.3535965  36.5585598  36.6456501
  41.0818039  37.8020598  36.5874030  40.7081165  36.1247181  36.1247753
  44.1400275  34.1346181  33.9392611  43.7716424  33.0683113  34.5259622
  44.8735814  34.1236249  32.8192808  45.1003288  34.9752313  32.3258727
  45.3135601  32.8364722  32.2361490  44.4516555  32.1788712  32.1230976
  45.9610135  33.0345838  30.8634160  46.5099518  33.9762250  30.8722448
  46.6540413  32.2122669  30.6856316  44.9365946  33.0659016  29.7763953
  44.7635935  32.0229162  29.5111540  43.9995445  33.5177528  30.1017717
  45.4343943  33.8118922  28.5322914  46.6344648  34.1336697  28.4168966
  44.5029114  34.1637126  27.6504388  44.7680930  34.6576779  26.8103327
  43.5346827  33.9352863  27.8249552  46.2743999  32.1440310  33.1938738
  46.1882629  30.9030040  33.3900332  47.1578217  32.9130154  33.8330216
  47.2628170  33.8935029  33.6145734  48.1076467  32.3007176  34.7966367
  48.4916428  31.3722447  34.3740444  49.3061453  33.2352052  35.1117809
  49.8780610  33.3882394  34.1965802  48.9186702  34.1920159  35.4617471
  50.2308241  32.6181618  36.2049921  49.5892621  32.3083180  37.0299138
  50.7056552  31.7410014  35.7654160  51.3204818  33.5845115  36.7334704
  52.0195120  33.7623156  35.9162548  50.8246353  34.5188708  36.9965452
  52.1046198  33.0362172  37.9847665  51.3978672  32.9777444  38.8125239
  52.4559740  32.0347720  37.7362572  53.3055259  33.9155077  38.3950186
  52.9801156  34.8433934  38.6257480  53.7612897  33.5088477  39.1993860
  53.9607441  33.9694702  37.6282876  47.3765018  31.8532724  36.0725320
  47.6637073  30.7779227  36.6227329  46.3777872  32.6073160  36.5125109
  46.1915623  33.5200259  36.1221517  45.5335559  32.1382983  37.6349752
  46.1487515  32.0167883  38.5265294  44.4171319  33.1417862  37.9433979
  44.9720190  34.0225075  38.2667083  43.8540867  33.3788774  37.0406976
  43.4421826  32.7104575  39.0588388  42.9204639  31.8089210  38.7376809
  44.2137126  32.4201423  40.4056797  44.7353375  33.3214127  40.7277325
  43.5025587  32.1181939  41.1745672  44.9365657  31.6201389  40.2457474
  42.3422654  33.7537499  39.2346262  41.7894579  33.8604524  38.3012893
  41.6621288  33.4358070  40.0248336  42.7885219  34.7111790  39.5034826
  44.9327943  30.7619216  37.2934394  44.9218257  29.8608697  38.1498780
  44.3930837  30.6252520  36.0938796  44.3267638  31.3974488  35.4462585
  43.7939302  29.3442407  35.7110541  43.0070629  29.1252428  36.4328428
  43.1740690  29.4251423  34.3269905  43.9511562  29.6349219  33.5919884
  42.6944254  28.4761996  34.0870944  42.4311029  30.2224533  34.3070964
  44.8191463  28.1842829  35.7758595  44.5050685  27.0928520  36.3161657
  46.0225476  28.4296890  35.2411876  46.1798805  29.3050740  34.7625992
  47.1067673  27.4139562  35.2262387  46.7708580  26.5007528  34.7349917
  48.3266544  27.9766993  34.4471113  48.5808034  28.9470968  34.8735351
  49.5742948  27.0285839  34.5251923  49.3210356  26.0580716  34.0985012
  50.4000579  27.4669626  33.9648009  49.8697948  26.9010955  35.5665986
  47.9118179  28.1207824  33.0781132  48.6401144  28.4680482  32.5579296
  47.4664581  26.9658674  36.6325264  47.4996852  25.7450032  36.9266227
  47.6980163  27.9490977  37.5078915  47.6339258  28.9082027  37.1978764
  48.1084994  27.6958973  38.8667171  48.9496249  27.0109056  38.9734573
  48.4494640  29.0190195  39.6042244  47.6533816  29.7347036  39.3989240
  48.5864884  28.8195878  41.1570429  49.3827463  28.1043324  41.3631592
  48.8253351  29.7737495  41.6267536  47.6465547  28.4421606  41.5597526
  49.6755429  29.6712022  38.9797942  49.4767112  29.8899948  37.9306527
  49.9029718  30.5977887  39.5068739  50.5258816  28.9933483  39.0542199
  47.0227997  26.9218561  39.6056470  47.3269745  25.8624803  40.2362710
  45.7689129  27.3911998  39.5324260  45.5752851  28.2599326  39.0550258
  44.6667458  26.7255352  40.2433321  44.9983392  26.6377656  41.2779536
  43.3795507  27.5569762  40.2104118  43.0301356  27.6460450  39.1817837
  42.6143365  27.0668853  40.8123740  43.5774873  28.5501195  40.6136321
  44.4080885  25.2866420  39.7200621  44.1632106  24.3547888  40.5123312
  44.4818591  25.1219587  38.4036220  44.5957632  25.9271952  37.8046901
  44.2630744  23.8071891  37.7731396  43.3488478  23.3627380  38.1665252
  44.1281418  23.9398335  36.2536990  44.9008372  24.6102759  35.8774704
  44.2423386  22.9591623  35.7918082  42.7468245  24.5085811  35.9096546
  42.0057768  23.7430145  36.1395612  42.6088278  25.3591791  36.5771417
  42.5818852  24.9462245  34.5205641  43.5539181  24.7933045  33.7483359
  41.4786546  25.4235899  34.1589973  45.3749825  22.8158973  38.2052355
  45.0971999  21.6606221  38.5636281  46.6111190  23.2770680  38.2383593
  46.8480177  24.1839197  37.8620637  47.6886838  22.4337052  38.7378833
  47.6509578  21.4910720  38.1918810  49.0159754  23.0784484  38.4878147
  49.0723985  24.0192620  39.0353422  49.8121909  22.4144742  38.8243848
  49.1313756  23.2718431  37.4213343  47.5026511  22.0974879  40.2316275
  47.7088519  20.9439255  40.6468542  47.1289478  23.0876176  41.0474283
  47.1104654  24.0445097  40.7247594  46.8285582  22.8245257  42.4535417
  47.6852249  22.3300669  42.9115065  46.5325000  24.1000319  43.2276112
  45.8124040  24.6864602  42.6569425  46.0959394  23.8235231  44.1873287
  47.7654308  24.9122798  43.4571875  48.4442648  24.3525676  44.1006217
  48.2483493  25.1027151  42.4987377  47.3662758  26.4852223  44.2426002
  46.8876576  26.0103246  45.9172407  47.7209502  25.5034905  46.4039044
  46.6226101  26.9013406  46.4863988  46.0300163  25.3389966  45.8739804
  45.6840022  21.8430388  42.6303753  45.7489233  21.0034616  43.5350490
  44.6774910  21.9207334  41.7556481  44.6817464  22.6689406  41.0772181
  43.5179799  21.0341157  41.8012675  43.1245790  21.1020325  42.8155269
  42.4295076  21.4862214  40.8227394  42.8054585  21.4151441  39.8020979
  41.5535513  20.8468117  40.9320830  42.1539212  22.5188568  41.0367849
  43.8942214  19.5553461  41.5517022  43.3143103  18.6647390  42.1792975
  44.8327253  19.3099762  40.6414384  45.1875141  20.0722939  40.0818887
  45.3345761  17.9315847  40.3599427  44.4680568  17.2759526  40.2739771
  46.1027395  17.9068534  39.0298257  45.4552773  18.2641141  38.2290407
  46.9784376  18.5517164  39.1033417  46.5467284  16.4799645  38.7257101
  47.1946430  16.1221575  39.5258862  45.6714837  15.8345547  38.6515824
  47.3092952  16.4554129  37.4052882  46.6618346  16.8126751  36.6045028
  48.1849937  17.1002747  37.4788059  47.7569186  15.0835181  37.0767473
  47.5303089  14.3362630  37.7173386  48.4439504  14.7897233  35.9764871
  48.7796380  15.7188693  35.0860367  48.5106929  16.6804265  35.2382744
  49.3019593  15.4586345  34.2616836  48.7960448  13.5223159  35.7799957
  48.5395354  12.8191835  36.4581607  49.3183175  13.2688048  34.9535199
  46.2252296  17.3807462  41.4995564  46.3172345  16.1574116  41.7073099
  46.8849974  18.2870575  42.2284496  46.7466479  19.2602389  41.9963361
  47.9180230  17.9459393  43.2224830  48.4459074  17.0402289  42.9239433
  48.9411582  19.1051146  43.3225480  49.8372559  18.8249130  42.7688376
  48.4944443  19.9887074  42.8666857  49.3429536  19.4472663  44.7670620
  49.7594120  18.5787735  45.5326158  49.2198633  20.7354524  45.1341876
  49.4696105  21.0162704  46.0716669  48.8782527  21.4160307  44.4706997
  47.3716083  17.5101198  44.5897271  46.2732998  17.9106453  45.0022277
  47.9798750  16.6879820  45.2712993  51.0798116  46.5760101  35.6165643
  51.5898567  45.4576337  36.2879600  50.7597939  44.6593905  37.0772190
  49.4019609  44.9826769  37.1913570  48.8509974  46.0798740  36.5163388
  49.7166673  46.8761880  35.7358782  52.5005487  48.5867792  35.1315696
  52.2521063  49.2515274  36.1317332  51.9900537  47.3296008  34.8479796
  52.7282523  46.7191511  34.5224829  53.7061977  47.9984969  33.0048443
  53.4468184  49.0931678  34.0376110  52.8836066  50.3393997  33.3556194
  47.3867445  46.4258393  36.5974093  47.0948209  47.6238706  36.0247816
  46.9363338  46.5265344  37.8798226  46.5932914  45.4987013  36.0013788
  48.5838378  44.1390425  38.0531631  47.9955618  43.1917034  37.5174011
  48.5692945  44.4135723  39.2575368  52.6465223  45.2053030  36.2269679
  51.1754210  43.8054940  37.6078148  49.3300315  47.7498980  35.2102752
  52.7949409  47.6423195  32.5114656  54.3491565  48.3947989  32.2086297
  54.2568567  47.1501524  33.4275348  54.3965844  49.3444302  34.5244423
  51.9246257  50.1251341  32.8736175  52.7120680  51.1369653  34.0869720
  53.5751985  50.7190111  32.5968112  39.0692474  61.6176655  35.4644164
  44.3093972  15.3077546  46.3981883  32.6543086  58.6497004  26.9451939
  53.3956401  48.7813458  52.5675823  21.6288594  28.6802719  40.7951842
  52.5717105  46.2708153  23.1732999   1.2719548  29.9672624  46.9040661
  16.0735327  39.9985916  46.5694944  23.9807130  72.8012633  38.5616203
   3.0324350  36.5647515  33.2894321   5.7314708  28.7967704  29.6131077
  13.8570850  39.2523138  48.5607071  61.4491107  39.1680674  17.1755439
  73.2246707  61.2595479  59.6882602  34.6396004  19.1643045   9.6408006
  52.8535136   4.4602531  71.5237034  75.5221626  51.7819117  21.9166950
  55.9622728   6.8450237   9.9291138  35.0261537  65.4465624   9.3673367
  37.5987364  65.0983904  22.1920221  55.6964828  45.6117947   4.7390601
  49.4326705  31.0118226   9.3324258  70.7449514  70.2683628  54.6062837
  43.9105248  30.3041801  64.7851622  46.9004890  54.0348176  12.5031688
  31.6334908  60.4088865  44.4921250  37.4406949  63.7416734   6.6053013
  47.2198404  72.8112139  23.7518997  74.1134842  26.0228557  53.1112736
  71.7895307  68.5033975  25.7061564  40.4337976  15.6085256  17.2703726
   5.9266918  30.2291463  41.0174022  54.8913647  40.1636324  26.6572151
  40.3827959  78.9978527  47.4103546  65.0191530  26.6641499  31.8324195
  56.2784518  41.5493159   3.4853598   1.9518647  55.9538205  17.2672098
  77.3053825  49.9722991  52.2311122  74.6583841  58.8752699  31.7787895
  37.4354649  18.6582483  48.8709406  62.1482961  62.3078656  39.0974210
   7.4383475  27.8130250  18.7322589  69.3210388  30.5742044  50.5359906
  34.4023095  22.0902200   9.6556499  74.1267632  23.8664883  63.5057433
   7.3595226  36.7383650  60.7498901  63.4822465  26.1268952  43.6807007
  47.9074305  36.6733254  76.8376870  67.6065655  64.5658870  42.8655930
  54.0406985  17.5400121  36.5636709  38.0799404  14.7279341  27.0546091
  15.9580625  25.0587456  64.2125158  56.7271092  10.5099766  45.5311992
  40.7938552  57.1624077  16.3717499  27.0056458   0.8950605  20.9982395
  45.3204901  18.8928832  29.3215935  35.4840210  13.6180149  46.9023554
  46.0639851  74.6083229  28.6535639  30.7068295  38.4538248   9.8338406
  51.1983271  22.1503007  73.6599492  25.7989837   8.6583100  24.6949937
  44.8375967  38.2120574  85.8696382  44.3087439  38.4280207  86.5293688
  45.3600987  38.9056712  85.7897351  44.8364420  38.3463710  85.9551981
  36.7275575  42.1083790  84.6703850  36.1432790  42.6133822  85.0769714
  36.3245670  41.8826177  83.9300442  36.5814879  42.1492039  84.6208875
  41.1852790  38.3549442  83.1472771  41.4248793  38.5627426  82.3348114
  41.5068631  37.5506951  83.2561715  41.2689947  38.2663544  83.0433324
  34.3962171  35.9687330  82.2032895  33.6820349  35.6825509  82.6155327
  34.8806140  36.3083956  82.8439282  34.3621535  35.9768979  82.3588530
  41.5709489  44.4717284  82.5794703  41.9860638  44.1402308  81.8879199
  40.7401419  44.2386186  82.4514840  41.5097498  44.3888540  82.4585550
  44.2642880  40.7227843  81.7655904  44.1823042  40.7930030  82.6310891
  44.9022600  41.2857587  81.5739645  44.3462717  40.8166814  81.8645854
  41.3682990  40.7448297  84.7764511  42.1823629  41.0363190  84.6647282
  41.3042131  40.0908160  84.2022804  41.4785729  40.6913492  84.6753348
  37.8793713  39.4372105  84.2411712  38.2638866  39.2179811  84.9928257
  37.6305333  40.2635050  84.3712789  37.8995786  39.5270251  84.3712789
  42.8059012  43.9610097  80.1180316  43.5731997  44.0210222  79.7086168
  42.3590321  43.3890539  79.6336635  42.8532439  43.8846673  79.9858026
  38.8533612  40.2328864  81.5817426  39.1426137  41.0093746  81.8561001
  38.9405411  39.7217595  82.2831926  38.9087869  40.2720782  81.7259924
  43.6465231  35.6262127  85.8371113  43.1188250  35.7090871  85.1476822
  44.1060939  36.3679998  85.8335758  43.6367082  35.7482789  85.7345808
  35.6398296  33.8964646  80.8612008  35.2911101  34.5484372  81.3243558
  35.1594742  33.8821760  80.1335879  35.5168540  33.9907700  80.8223100
  36.0422427  37.3890288  83.7030630  36.6767507  37.9850713  83.6380091
  36.1248038  37.0893746  84.5176500  36.1478978  37.4331196  83.8133716
  40.6812521  35.2612387  85.1766736  40.0877361  35.5829384  84.6251303
  40.7187799  34.4153483  84.9687842  40.5986911  35.1836715  85.0649507
  38.6541754  35.9009638  83.2696065  39.0340719  35.9189267  82.4847180
  37.9134350  36.3463627  83.1486913  38.6010591  35.9691412  83.1359634
  39.4526508  42.7387144  84.6604855  38.6437831  42.4153817  84.6138165
  39.9601417  42.0320366  84.5933104  39.4076175  42.5868460  84.6435150
  48.0562478  15.2253964  74.7206094  48.0256482  16.0798601  74.8924364
  48.6543827  14.9249257  75.2792238  48.1399636  15.3070461  74.8280896
  35.6403303  23.8492333  75.2396256  34.8886202  23.4707871  75.0112301
  36.0889314  23.8810767  74.4915066  35.5952969  23.7977940  75.0953758
  41.0928262  24.2717703  70.6681803  40.7579631  24.9494624  70.2326025
  41.6055133  23.8823014  70.0798675  41.1193844  24.3142281  70.5168595
  40.6332554  26.2231971  76.6092915  41.0171933  26.7918870  76.0697690
  40.5691695  25.4981482  76.1298731  40.6805981  26.2007435  76.4586777
  45.8779052  17.8006266  72.9924404  45.7618578  18.5513952  73.4216542
  46.6734939  17.5430220  73.2420491  45.9783642  17.8741113  73.0928496
  37.0588798  28.7788314  78.9073885  37.7026254  29.2201479  79.2970043
  37.3845054  27.9741741  78.8204143  37.2020627  28.7253509  78.9519362
  37.7609378  21.7900289  74.2793746  38.0825219  22.3305497  73.6755054
  38.4081475  21.2197061  74.4116036  37.9035433  21.7859464  74.2100782
  39.9999021  20.1786729  74.3507925  40.4392657  19.5703830  74.7962697
  39.8503684  19.7994103  73.5793390  40.0420487  20.0325200  74.3027092
  43.6008358  18.5313911  71.3038694  43.5159653  19.3874877  71.4488263
  44.0892741  18.2558235  71.9720853  43.6597255  18.6171232  71.4240775
  44.5326791  15.1498705  72.8036429  44.0038263  15.3658338  73.4633735
  45.0551811  15.8434843  72.7237398  44.5315244  15.2841842  72.8892028
  49.9874844  20.7245009  78.1769473  49.1572547  20.9355653  78.3402890
  49.9384096  19.8982064  77.9011757  49.8581580  20.6334616  78.1606839
  36.4226399  19.0461922  71.6043897  35.8383614  19.5511953  72.0109761
  36.0196494  18.8204308  70.8640489  36.2765703  19.0870170  71.5548922
  40.8803613  15.2927574  70.0812818  41.1199617  15.5005557  69.2688161
  41.2019454  14.4885082  70.1901762  40.9640771  15.2041675  69.9773371
  47.2439159  21.3944364  78.3134189  46.8074391  21.3981106  79.0693161
  46.9102075  22.0749863  77.8813767  47.1301779  21.4956819  78.3615022
  50.3783506  18.1125284  77.2053826  51.0399940  17.5515952  77.1049735
  49.7374918  17.6177314  77.5306518  50.3812373  17.9561693  77.2386167
  41.2660313  21.4095415  69.5134750  41.6811462  21.0780439  68.8219245
  40.4352243  21.1764317  69.3854886  41.2048322  21.3266671  69.3925597
  46.6648336  19.1290666  76.9465815  46.9003925  19.2735865  76.1192666
  46.8137900  19.8933074  77.3397329  46.7214140  19.2629720  76.8829419
  48.4938793  17.9692332  74.7835419  48.8247010  18.5019972  74.1775514
  49.0671881  18.0231220  75.4397370  48.6272472  18.0561901  74.7913201
  43.9593703  17.6605974  68.6995951  43.8773866  17.7308161  69.5650938
  44.5973424  18.2235718  68.5079692  44.0413541  17.7544945  68.7985901
  41.0633814  17.6826429  71.7104558  41.8774452  17.9741321  71.5987329
  40.9992955  17.0286291  71.1362851  41.1736553  17.6291623  71.6093395
  37.5744537  16.3750236  71.1751759  37.9589690  16.1557943  71.9268304
  37.3256157  17.2013181  71.3052835  37.5946610  16.4648382  71.3052836
  37.8567780  24.5955112  73.2484129  38.1466078  24.2044093  72.5243356
  38.5871260  24.7771817  73.6889405  38.0074664  24.5648926  73.2066936
  35.7973695  26.5722494  76.3144279  35.5773991  26.2819849  77.1070946
  35.5768217  25.9137449  75.7862191  35.7321289  26.4322203  76.3533188
  37.9641651  27.9451884  75.0974971  38.6165709  27.4128326  75.3265998
  37.2667260  27.5920536  75.4842846  37.9572369  27.8141407  75.1887139
  45.9581569  20.2656298  74.4405951  46.5239602  20.9249508  74.3564494
  45.3109473  20.6105996  74.9122353  45.9460326  20.4138239  74.4978707
  42.4288147  23.2095082  73.8643030  42.1874823  22.4762943  73.4570095
  42.6089480  23.7581939  73.2109363  42.4195771  23.1817473  73.7073253
  47.1544267  20.3162526  71.2331587  46.7751076  19.5299664  71.2260877
  46.4910513  20.8649383  71.0903231  47.0002742  20.2807350  71.2112384
  39.9791175  23.8676045  75.0720413  40.7441066  23.5985689  74.7503078
  39.8769265  23.3826055  75.7890476  40.0772671  23.7565610  75.1300241
  42.5009836  20.8988229  67.0520363  43.2682821  20.9588354  66.6426215
  42.0541145  20.3268670  66.5676681  42.5483263  20.8224804  66.9198073
  45.4004366  22.5608017  71.5683273  45.4824203  23.3675003  71.2444724
  45.8854108  22.5803976  72.2924047  45.4841524  22.6828679  71.6270172
  41.0362459  17.1102788  74.5374687  41.5778004  16.6073169  75.0013307
  41.3509018  17.0567982  73.7264172  41.1626856  17.0282209  74.4858499
  39.2048908  22.5020139  71.8214715  39.2741729  21.6434678  71.9607715
  39.9837364  22.7192020  71.4933739  39.3301759  22.4073003  71.7931872
  43.5956396  24.9257841  76.0351208  43.2036188  24.6224556  75.3174074
  43.7509468  25.7626931  75.8456162  43.5609986  25.0041677  75.9007705
  43.7596071  21.4907829  75.9757239  43.4010726  21.6622472  76.7521271
  43.2734782  21.9521035  75.4185237  43.6354768  21.5846801  76.0082508
  38.5484436  17.1706995  68.5157473  38.8376961  17.9471877  68.7901047
  38.6356235  16.6595726  69.2171972  38.6038692  17.2098913  68.6599971
  44.3646701  24.3293333  79.4681242  44.1666390  24.8184148  78.7737454
  43.7434412  24.5334575  80.0465376  44.2434266  24.4309872  79.4504466
  43.3416055  12.5640258  72.7711160  42.8139074  12.6469002  72.0816869
  43.8011763  13.3058129  72.7675805  43.3317906  12.6860920  72.6685855
  35.3349120  10.8342778  67.7952055  34.9861925  11.4862503  68.2583604
  34.8545566  10.8199891  67.0675926  35.2119364  10.9285831  67.7563146
  42.8953138  21.1343822  71.9020817  43.6187337  21.6001935  71.7585390
  42.4553729  21.2017431  71.1518414  42.9368830  21.2127658  71.7705598
  43.1556987  25.1964527  72.0618878  42.4386297  25.0225389  71.5966115
  43.8063725  24.9617099  71.5294364  43.1458838  25.1360319  71.9148096
  38.4370149  26.4326285  78.4909026  38.0230548  25.7700415  78.1012868
  39.1217524  26.5804144  77.9704720  38.4768521  26.3566943  78.3565523
  41.8035443  25.5916370  79.2432643  41.4051727  25.7018641  78.4753463
  41.1886663  25.7998437  79.8259202  41.6534333  25.6389938  79.2163942
  49.5377286  20.1668337  72.6275733  49.9210892  20.9159693  72.8573830
  48.7421399  20.4134157  72.3687722  49.4771068  20.3138031  72.6233307
  38.3492578  12.8387769  70.2036112  38.7291542  12.8567398  69.4187227
  37.6085174  13.2841758  70.0826959  38.2961415  12.9069544  70.0699680
  39.1477332  19.6765275  71.5944902  38.3388654  19.3531949  71.5478212
  39.6552241  18.9698497  71.5273151  39.1026999  19.5246591  71.5775197
  59.0295062  30.7439272  74.7206094  58.9989066  31.5983909  74.8924364
  59.6276410  30.4434565  75.2792238  59.1132219  30.8255769  74.8280896
  52.2294746  29.8314923  79.4759025  51.3732642  29.9923421  79.5268141
  52.2762400  28.9606987  79.4964086  52.1093858  29.7265725  79.4865091
  46.6135886  39.3677641  75.2396256  45.8618786  38.9893179  75.0112301
  47.0621898  39.3996075  74.4915066  46.5685553  39.3163248  75.0953758
  52.0660846  39.7903011  70.6681803  51.7312214  40.4679932  70.2326025
  52.5787716  39.4008322  70.0798675  52.0926427  39.8327589  70.5168595
  51.6065137  41.7417279  76.6092915  51.9904517  42.3104178  76.0697690
  51.5424279  41.0166790  76.1298731  51.6538564  41.7192743  76.4586777
  55.0746567  31.8906967  82.1190676  55.6202527  32.5692054  82.1784646
  55.0163444  31.7494428  81.2592258  55.1462482  31.9698969  82.0002737
  48.1920642  39.3796033  77.5059029  48.2931005  38.5696387  77.8156156
  47.5962388  39.2852980  76.8758707  48.1193181  39.2461061  77.4585267
  56.8511636  33.3191574  72.9924404  56.7351162  34.0699260  73.4216542
  57.6467523  33.0615528  73.2420491  56.9516226  33.3926421  73.0928496
  48.0321382  44.2973622  78.9073885  48.6758837  44.7386786  79.2970043
  48.3577637  43.4927049  78.8204143  48.1753211  44.2438817  78.9519362
  41.3885687  35.4016320  77.1311362  41.1535871  34.5683972  77.0243631
  41.5271327  35.6820985  76.3172563  41.3741349  35.3199823  76.9953717
  43.6875774  27.5702050  80.0295670  43.0680806  26.9794698  79.8605685
  43.5859638  28.1613486  79.3959993  43.5813450  27.5706133  79.9100660
  48.7341962  37.3085597  74.2793746  49.0557803  37.8490805  73.6755054
  49.3814058  36.7382369  74.4116036  48.8768017  37.3044772  74.2100782
  50.7843670  29.3101592  74.3628133  51.4823834  29.4889720  74.8549596
  51.0996002  28.7871932  73.7398522  50.9339007  29.2595364  74.3430143
  43.4144907  31.1154332  82.2739239  43.2903604  31.7016778  82.9089058
  44.0663192  30.6214528  82.5751514  43.4918556  31.1293137  82.4125168
  50.9731605  35.6972037  74.3507925  51.4125241  35.0889138  74.7962697
  50.8236268  35.3179411  73.5793390  51.0153071  35.5510508  74.3027092
  48.4403248  34.2916049  81.5526750  49.0852251  33.7988492  81.2337699
  48.6805025  34.4340836  82.3792828  48.5713833  34.2393491  81.6276283
  50.9789339  37.1370955  81.2033643  51.2612582  36.3422361  80.9820398
  51.7075500  37.6151542  81.2238704  51.1278903  37.0905552  81.1736658
  48.9570533  24.6793989  78.4449408  48.6273863  25.1305132  77.7753106
  48.2815535  24.6010152  78.9922414  48.8080970  24.7345124  78.4272631
  54.5740942  34.0499218  71.3038694  54.4892237  34.9060185  71.4488263
  55.0625325  33.7743543  71.9720853  54.6329839  34.1356540  71.4240775
  56.1646941  20.6679512  76.6899018  55.8500382  21.3582990  77.1219441
  55.6473883  20.6124294  75.9884519  56.0411411  20.7614400  76.6495968
  55.5059375  30.6684013  72.8036429  54.9770846  30.8843646  73.4633735
  56.0284395  31.3620151  72.7237398  55.5047828  30.8027150  72.8892028
  60.9607428  36.2430317  78.1769473  60.1305131  36.4540961  78.3402890
  60.9116680  35.4167372  77.9011757  60.8314163  36.1519923  78.1606839
  47.3958983  34.5647229  71.6043897  46.8116198  35.0697261  72.0109761
  46.9929078  34.3389616  70.8640489  47.2498286  34.6055478  71.5548922
  42.9503011  40.2801991  78.4067568  42.4670589  41.0052480  78.3827152
  43.7626330  40.5778121  78.5177726  42.9993759  40.4304344  78.4194848
  49.0217165  39.0734171  81.0117383  48.5044107  38.7141586  80.4078691
  49.7191557  38.5496346  81.0223449  49.0482746  38.9431859  80.9247642
  51.8536197  30.8112882  70.0812818  52.0932201  31.0190865  69.2688161
  52.1752038  30.0070390  70.1901762  51.9373355  30.7226983  69.9773371
  47.1626487  22.7406277  73.9272355  47.9172455  23.1084594  73.6889406
  46.9854022  23.1145832  74.6951535  47.2480966  22.8504465  74.0057244
  45.8047209  40.7958166  78.5587848  46.5067788  40.2810156  78.6160605
  45.7244692  41.1232318  79.3634723  45.8970969  40.7672393  78.6860641
  45.5183552  25.1476596  70.6250468  45.3359125  25.3648477  69.7991461
  46.3809165  25.2615609  70.6809083  45.6188141  25.1966494  70.5104955
  45.1297984  36.9864518  78.0673456  45.9686883  37.2187451  78.1147218
  45.1609753  36.1168830  77.9980492  45.2579702  36.8921465  78.0638101
  45.7550687  37.4065394  82.3686762  46.2948912  37.2636525  83.0390134
  45.0720633  37.8062144  82.7370788  45.7342841  37.4445065  82.5221184
  55.1791572  33.0856394  77.5631786  55.9349087  33.5187909  77.6020695
  55.2853896  32.4361164  78.1366422  55.3061742  33.0533878  77.6529812
  58.2171743  36.9129672  78.3134189  57.7806975  36.9166414  79.0693161
  57.8834658  37.5935171  77.8813767  58.1034363  37.0142127  78.3615022
  41.1587832  33.6265684  82.5221183  40.8926247  32.8104801  82.6812174
  41.1726396  33.6718840  81.6516699  41.1212554  33.5122589  82.4174665
  45.0645579  28.4250769  69.1372942  44.3503756  28.1388948  69.5495374
  45.5489548  28.7647395  69.7779329  45.0304942  28.4332419  69.2928576
  61.3516089  33.6310591  77.2053826  62.0132523  33.0701260  77.1049735
  60.7107501  33.1362622  77.5306518  61.3544957  33.4747000  77.2386167
  52.2392897  36.9280723  69.5134750  52.6544045  36.5965747  68.8219245
  51.4084827  36.6949625  69.3854886  52.1780906  36.8451979  69.3925597
  41.5681246  34.4124464  79.8032928  41.3856819  34.3871350  78.9505220
  42.3030915  34.8823402  79.8421836  41.6495310  34.4785826  79.6830846
  57.6380920  34.6475974  76.9465815  57.8736509  34.7921173  76.1192666
  57.7870484  35.4118382  77.3397329  57.6946723  34.7815028  76.8829419
  59.4671377  33.4877640  74.7835419  59.7979594  34.0205280  74.1775514
  60.0404465  33.5416528  75.4397370  59.6005056  33.5747209  74.7913201
  54.6803266  31.3342542  75.4658999  54.7750120  32.0731837  75.9198625
  54.0562109  30.9060018  75.8993564  54.6012296  31.3803863  75.5967147
  41.5352156  31.2917965  79.9531994  42.1125659  31.1554415  80.5924240
  40.8366218  30.8353749  80.2077579  41.5173177  31.2040231  80.0854284
  54.9326287  33.1791282  68.6995951  54.8506450  33.2493469  69.5650938
  55.5706008  33.7421026  68.5079692  55.0146124  33.2730253  68.7985901
  48.2919458  32.9452020  78.1670477  48.0338702  32.1123755  78.1401777
  48.3467941  33.1709633  77.3262978  48.2619236  32.8549791  78.0390614
  53.3720508  25.0480471  78.2674570  52.6676835  24.5589656  78.4258489
  53.4205483  25.0602945  77.3963015  53.2750560  24.9770119  78.1613910
  47.2654170  30.4989783  78.6535372  46.6903762  30.6581951  79.2899333
  46.8889847  29.8625192  78.1903823  47.1256983  30.4287596  78.6789931
  50.9327459  28.9713132  83.5127751  50.5441892  28.5467350  82.8579942
  50.2682157  29.2195282  84.0204777  50.7774387  28.9451853  83.4915619
  60.5750728  28.7288137  76.2875581  60.3187293  27.9168078  76.0973463
  61.4180042  28.7365704  76.0605768  60.6616754  28.6100134  76.2260398
  37.0110989  30.1429857  76.6679813  37.0971241  29.7661726  77.4493343
  37.6386787  29.7690303  76.1899771  37.1167540  30.0315340  76.7125290
  52.0366397  33.2011737  71.7104558  52.8507036  33.4926629  71.5987329
  51.9725538  32.5471599  71.1362851  52.1469136  33.1476931  71.6093395
  42.5986948  38.9121591  80.7211173  42.6391093  39.1836442  79.8930953
  43.1581472  39.4363499  81.1368961  42.6870294  39.0297346  80.6603062
  48.5477121  31.8935544  71.1751759  48.9322273  31.6743251  71.9268304
  48.2988741  32.7198489  71.3052835  48.5679193  31.9833690  71.3052836
  50.2895777  37.1505677  78.5170656  50.3634786  36.9880848  79.3712506
  51.1065284  37.3395866  78.2731138  50.4212136  37.1542419  78.6068682
  44.0501534  37.4963539  75.5465099  43.2239652  37.7425277  75.4199378
  44.1113525  37.4175620  76.4127158  43.9375701  37.5208488  75.6554044
  46.2677558  23.5632480  76.5060540  45.3999983  23.6355080  76.5718149
  46.5552762  24.3654559  76.6948515  46.1817306  23.6926628  76.5435306
  48.8300363  40.1140420  73.2484129  49.1198662  39.7229401  72.5243356
  49.5603844  40.2957125  73.6889405  48.9807247  40.0834233  73.2066936
  49.4195108  34.9158166  84.3337260  48.9206802  35.6273933  84.4122148
  50.2295333  35.2358832  84.2955422  49.4651215  35.0685014  84.3393828
  46.7706279  42.0907802  76.3144279  46.5506574  41.8005157  77.1070946
  46.5500801  41.4322757  75.7862191  46.7053873  41.9507510  76.3533188
  45.6823226  34.1781119  78.5799981  45.3936475  33.5518590  79.1145708
  46.5506574  34.1201406  78.6464661  45.7683478  34.0768663  78.6690935
  56.4701124  29.3215902  78.8981963  56.1265890  28.6006237  79.2489212
  56.5694166  29.1129753  78.0560321  56.4343167  29.1840105  78.8253643
  48.9374234  43.4637192  75.0974971  49.5898292  42.9313634  75.3265998
  48.2399843  43.1105844  75.4842846  48.9304952  43.3326715  75.1887139
  45.8855499  35.8176370  74.5042346  46.6401467  36.1989409  74.7177808
  45.2926112  36.2687513  74.9589042  45.9092213  35.9405197  74.6025224
  56.9314153  35.7841606  74.4405951  57.4972185  36.4434816  74.3564494
  56.2842056  36.1291304  74.9122353  56.9192909  35.9323547  74.4978707
  47.2053726  36.9884931  79.8782461  46.6834479  37.1285223  80.5634326
  47.5927746  36.2295595  80.0684579  47.1857427  36.8970455  80.0083538
  44.1944910  27.0390740  73.9477416  43.9069706  26.6692010  73.2109363
  44.8815378  27.5085595  73.6861121  44.2533807  27.0537709  73.7992492
  53.4020731  38.7280390  73.8643030  53.1607407  37.9948251  73.4570095
  53.5822064  39.2767247  73.2109363  53.3928355  38.7002781  73.7073253
  48.6320052  34.0188950  75.2763952  48.4362834  34.6263685  74.6824255
  48.8554397  33.3256894  74.7955626  48.6354693  34.0066476  75.1180033
  47.0298582  30.9043688  75.3944821  47.7521233  31.0684846  74.9348627
  46.5506574  31.6253353  75.2884160  47.0662312  31.0341918  75.3110435
  54.9892089  27.2407487  80.7741506  54.1503190  27.2668766  80.5379769
  55.0596456  27.8878222  81.3546852  54.8760483  27.3403613  80.8250622
  44.6806198  33.3101760  84.4998960  45.1927295  33.5886014  83.8507720
  44.3942541  34.0491054  84.8661773  44.7141061  33.4604114  84.4588838
  53.4361367  24.1392864  75.5069121  54.1387720  23.9400612  75.0289080
  53.1705556  23.3668806  75.8137965  53.5008000  23.9955830  75.4814563
  58.8649613  32.4475474  78.0602747  58.7783587  32.6030900  78.9137526
  58.4100093  33.0913549  77.6862152  58.7852870  32.5651229  78.1309854
  41.7673105  27.8171952  74.7962697  41.8689241  28.6198114  75.1243672
  42.5628991  27.6159288  74.4985777  41.9001010  27.9057851  74.7998052
  52.7375429  29.7686221  76.6828307  52.4910143  29.6881972  77.5165096
  53.0660552  28.9839688  76.4890834  52.7496673  29.6412486  76.7775830
  56.6323478  36.4769580  80.4715088  56.4937837  37.1750626  80.9763830
  55.8523476  36.3218236  80.1151270  56.4966705  36.5569747  80.4941362
  48.6972456  32.5042939  86.0951290  48.8415832  33.0844147  85.4594400
  49.0448105  32.8819236  86.8001144  48.7699918  32.6463643  86.1050285
  50.8692374  31.7033108  83.8776421  50.1215688  31.8964122  83.4724700
  51.0233899  30.8778327  83.6400543  50.7814801  31.6098219  83.7821827
  47.7700211  40.6945711  82.9612317  47.9189775  40.1348627  82.3085721
  48.5500213  40.7737713  83.3444836  47.9074305  40.6231277  82.9209266
  58.1276851  35.8347834  71.2331587  57.7483659  35.0484972  71.2260877
  57.4643096  36.3834691  71.0903231  57.9735325  35.7992658  71.2112384
  50.9523759  39.3861353  75.0720413  51.7173650  39.1170997  74.7503078
  50.8501849  38.9011363  75.7890476  51.0505254  39.2750917  75.1300241
  48.9876529  27.5885762  81.6113649  48.1972603  27.4077222  81.9330985
  49.3837151  26.8112715  81.5943944  48.9293405  27.4473223  81.6566198
  53.4742419  36.4173537  67.0520363  54.2415404  36.4773662  66.6426215
  53.0273728  35.8453978  66.5676681  53.5215847  36.3410112  66.9198073
  54.3720215  35.2228192  79.3373095  53.6965217  34.9913425  79.8386482
  54.3812591  34.6149375  78.7115200  54.2738719  35.0987118  79.3189247
  51.5014359  30.0646021  86.0937148  51.4373500  30.9255978  85.9657285
  51.6411547  29.7478015  85.2932699  51.5129829  30.1446188  85.9565361
  56.3736949  38.0793325  71.5683273  56.4556787  38.8860311  71.2444724
  56.8586692  38.0989284  72.2924047  56.4574107  38.2013987  71.6270172
  50.1833453  32.7578161  80.2353351  49.7595702  32.9582660  79.4992369
  50.0078308  31.9107009  80.3477651  50.0944333  32.6626942  80.1427041
  45.4715898  33.2530212  75.6681324  45.6280517  33.1877015  76.5237316
  45.8116491  34.0278765  75.4560003  45.5449133  33.3579410  75.7635918
  52.0095042  32.6288096  74.5374687  52.5510588  32.1258477  75.0013307
  52.3241601  32.5753290  73.7264172  52.1359439  32.5467517  74.4858499
  50.1781492  38.0205447  71.8214715  50.2474312  37.1619986  71.9607715
  50.9569947  38.2377328  71.4933739  50.3034342  37.9258311  71.7931872
  53.1584312  27.5224400  84.5896987  53.3726281  26.8835314  84.0360341
  52.5418211  27.9670224  84.1604849  53.0989641  27.4934544  84.4447418
  54.5688980  40.4443149  76.0351208  54.1768771  40.1409864  75.3174074
  54.7242052  41.2812238  75.8456162  54.5342569  40.5226985  75.9007705
  42.0450159  30.4365163  75.9842091  42.4249124  30.8549708  75.3202358
  41.4705524  31.0178618  76.2910934  42.0161484  30.5843021  75.9318832
  54.7328654  37.0093137  75.9757239  54.3743309  37.1807780  76.7521271
  54.2467365  37.4706343  75.4185237  54.6087351  37.1032108  76.0082508
  52.5499040  20.6324336  79.5784330  51.6792598  20.6063057  79.5317640
  52.8039382  20.4601528  78.7610176  52.4592600  20.6034480  79.4504467
  49.5217020  32.6892303  68.5157473  49.8109545  33.4657185  68.7901047
  49.6088819  32.1781034  69.2171972  49.5771276  32.7284221  68.6599971
  49.5748181  22.6430564  81.0357800  49.0586669  21.9510756  81.1609379
  49.0142110  23.3101341  80.9820399  49.4154694  22.6393822  81.0463866
  57.6190394  29.7486179  81.4890355  57.1918002  29.6612528  80.7338455
  56.9816447  29.8563955  82.0745199  57.4620001  29.7518839  81.4635797
  45.6880961  32.0025567  80.6157585  44.8468967  31.9029442  80.8236479
  45.8970969  32.7721048  80.9671906  45.5945653  32.1017611  80.6984900
  43.1656528  29.6245104  78.4442336  42.7713225  29.6988116  77.6692445
  42.6096645  30.0103051  78.9950698  43.0259340  29.6926879  78.4109996
  54.8021475  22.6026398  78.1246215  55.0071068  22.5348706  78.9703212
  54.4747898  23.4085220  78.0567392  54.7836722  22.7112339  78.2405870
  49.4997626  29.9306967  79.8655183  49.1960763  29.3762955  80.4665590
  48.7977046  30.1099177  79.3783217  49.3513835  29.8751749  79.8824888
  48.5563723  27.2407486  74.4299885  48.8323457  26.5226399  74.0177452
  49.1562392  27.8392406  74.2220991  48.6856987  27.2227857  74.3380646
  47.5615977  37.1456687  84.5727280  47.4536332  37.1558749  85.4389338
  47.7711758  37.9711468  84.3832234  47.5766088  37.2697762  84.6731372
  58.0555162  23.1558163  77.6048980  57.4429476  23.6428565  77.9902712
  58.1519337  22.4801653  78.1486631  57.9793060  23.1276471  77.7427838
  52.0574243  24.9121004  72.7046480  52.5117990  25.0831564  73.4294324
  52.5314289  24.2989114  72.3044255  52.1942563  24.8471889  72.7520241
  45.5789769  34.3969330  82.0349218  44.9877702  35.0378828  82.0052233
  46.3410792  34.8206947  82.0080518  45.6038029  34.5545168  82.0264365
  55.3379285  39.8478641  79.4681242  55.1398974  40.3369456  78.7737454
  54.7166996  40.0519883  80.0465376  55.2166849  39.9495179  79.4504466
  49.3987263  31.6163538  73.8091487  50.1429308  32.0037814  74.0474437
  49.5447959  30.7720963  73.9731975  49.5297848  31.5494011  73.8685456
  51.3166839  23.4113797  78.8423348  50.4702884  23.5836605  78.7164698
  51.3137971  22.6063141  79.1789176  51.1913989  23.3174826  78.8734475
  52.3865139  27.1889011  79.7085406  51.9125093  26.6630773  80.2190717
  52.7583275  26.6418484  79.1400268  52.3715028  27.0305008  79.7000553
  58.6501870  32.2491387  81.1192187  58.4100093  31.4097802  81.1234613
  59.1293877  32.3291554  81.8432960  58.6854053  32.1372787  81.2266989
  54.3148639  28.0825566  72.7711160  53.7871657  28.1654310  72.0816869
  54.7744347  28.8243437  72.7675805  54.3050489  28.2046228  72.6685855
  60.6507057  29.0292844  79.0721446  60.4116827  28.9888678  78.2342230
  60.8140958  29.8763996  79.1987167  60.6397360  29.1484929  78.9674928
  46.1239955  28.0102967  81.7379370  45.4993025  28.0221359  81.1305323
  45.7885550  28.4863142  82.3870610  45.9825447  28.0821484  81.7435939
  46.3081704  26.3528086  67.7952055  45.9594508  27.0047811  68.2583604
  45.8278150  26.3385199  67.0675926  46.1851948  26.4471139  67.7563146
  42.8365631  36.0703427  83.1783134  42.3065555  35.3795866  83.2278109
  43.1090724  36.0613613  82.3495843  42.7990353  35.9670559  83.0630550
  53.8685721  36.6529130  71.9020817  54.5919920  37.1187243  71.7585390
  53.4286312  36.7202739  71.1518414  53.9101413  36.7312966  71.7705598
  53.0371876  33.5126672  83.1521506  52.4228869  32.9684722  83.4470141
  53.5539161  32.9990908  82.6727322  53.0227539  33.3563081  83.1245734
  52.2768173  34.5830942  80.8865805  51.8495782  33.9580660  80.4531240
  52.2693118  34.3005864  81.7124812  52.2127315  34.4483722  80.9445632
  50.6053883  25.4599696  81.1008339  50.6296370  24.9259809  80.4121119
  50.8565357  24.9517005  81.7633929  50.6463802  25.3060600  81.0972983
  38.1161473  32.7431191  80.5351483  38.0104922  32.6978036  79.6703567
  37.3661693  33.0884972  80.8165768  37.9897076  32.7872099  80.4488812
  46.8855205  24.1870515  80.4814083  46.9253577  24.6879721  81.1948790
  46.0604870  24.2780908  80.2120006  46.7694731  24.2752331  80.5464621
  48.3069569  30.7031024  82.7787982  47.4761498  30.8704842  82.5723230
  48.2521086  30.3266975  83.5636867  48.1758984  30.6720756  82.8636510
  46.6805613  28.9786616  73.3078100  46.8208574  29.4759080  74.0106741
  47.1788145  28.2772910  73.4492313  46.7746694  28.9488595  73.4329679
  46.7105835  29.8453727  70.6370676  47.3450914  30.4414152  70.5720138
  46.7931446  29.5457185  71.4516547  46.8162386  29.8894635  70.7473763
  48.2884818  25.7767702  70.6116118  48.6100659  25.2970785  69.9575381
  48.5511762  26.5867348  70.4206930  48.3750843  25.8257600  70.4871610
  53.6843973  25.1639896  82.9739597  54.1099044  24.7112423  82.3623124
  53.0700966  24.6099967  83.2504385  53.6572618  25.0153873  82.9244623
  43.2158823  32.0421568  73.9060222  43.7251052  32.6386075  74.2871528
  43.6893095  31.7747541  73.2236642  43.3602199  32.0907383  73.8614745
  54.1289571  40.7149834  72.0618878  53.4118881  40.5410697  71.5966115
  54.7796309  40.4802407  71.5294364  54.1191421  40.6545627  71.9148096
  52.1238196  21.6354996  76.3830175  51.4806514  21.4852643  76.9515313
  51.7837603  21.3897341  75.6179279  51.9783273  21.5767119  76.3533190
  56.7137542  29.5914423  75.8060183  56.0428732  30.1344125  75.6773249
  57.4077292  30.0609278  75.5641878  56.7166410  29.7412694  75.7515711
  50.7624276  41.7311135  81.0371941  50.5389930  40.9729964  81.4055968
  50.2734119  41.7609156  80.3152381  50.6567725  41.6233360  80.9848682
  56.8765670  26.0470307  78.7150556  57.2293280  25.6200030  79.3896355
  56.0180471  25.9621150  78.8451633  56.8015114  25.9715047  78.8345567
  45.5749355  28.6777826  76.7733403  44.8561344  29.0941959  77.0406266
  45.9461717  29.2432065  76.2225041  45.5241286  28.8227108  76.7316210
  54.8748935  29.3105675  82.6635399  54.8546863  29.1288970  83.5170177
  54.9228136  30.1817694  82.6394982  54.8783576  29.4122213  82.7858693
  49.4102733  41.9511593  78.4909026  48.9963131  41.2885723  78.1012868
  50.0950107  42.0989452  77.9704720  49.4501105  41.8752251  78.3565523
  52.7768027  41.1101678  79.2432643  52.3784310  41.2203949  78.4753463
  52.1619247  41.3183745  79.8259202  52.6266916  41.1575246  79.2163942
  51.3495929  27.7175826  72.1106782  50.7560768  28.0392823  71.5591349
  51.3871207  26.8716922  71.9027888  51.2670318  27.6400154  71.9989554
  54.2253746  27.6755331  75.5408533  53.9967439  27.6988032  74.6986891
  54.4851822  26.8512798  75.6603543  54.2299934  27.5571411  75.4333730
  47.2798508  26.2131877  76.8362728  47.7555874  26.5748957  76.2012909
  46.7787108  26.8688345  77.1162871  47.2763867  26.3626066  76.7839469
  60.5109870  35.6853645  72.6275733  60.8943475  36.4345001  72.8573830
  59.7153983  35.9319465  72.3687722  60.4503652  35.8323339  72.6233307
  49.3225161  28.3573077  70.2036112  49.7024126  28.3752706  69.4187227
  48.5817757  28.8027066  70.0826959  49.2693999  28.4254851  70.0699680
  56.9510452  26.6655268  75.7911691  56.9504678  26.5103925  76.6495967
  56.7466632  27.5118255  75.7353076  56.9210230  26.7675889  75.9099630
  39.0127723  30.0895052  80.2070507  38.8349484  29.6371661  80.9325423
  38.7246745  30.8921214  80.3908985  38.9440676  30.1417610  80.3414010
  54.6751304  31.3452770  79.4447898  55.1704969  30.6275765  79.4051918
  53.8651080  31.0423567  79.3302385  54.6295197  31.1950416  79.4221624
  50.1209915  35.1950583  71.5944902  49.3121238  34.8717257  71.5478212
  50.6284824  34.4883805  71.5273151  50.0759582  35.0431899  71.5775197
  40.7500193  32.6222776  77.3192266  39.8845712  32.6108467  77.2075038
  40.8499008  32.4352999  78.1663406  40.6374360  32.5928837  77.4281211
  56.7403123  34.0956457  82.1325026  57.1658194  33.5730879  81.5795452
  56.3760043  34.6937295  81.6113649  56.7489725  34.1066684  81.9734036
  46.3757202  42.3920675  80.8922372  46.6903761  43.2057063  80.9000154
  46.7850616  42.0070893  81.5604531  46.4825300  42.4549377  80.9926464
  53.3281722  37.8090722  78.4626184  53.7992900  38.5230984  78.6316169
  53.6641901  37.2089472  78.9986053  53.4476837  37.8262186  78.5658560
  49.3144332  24.5834605  72.8863744  50.1360026  24.7532918  72.6445439
  48.8513983  24.7381866  72.1630041  49.3675494  24.6316338  72.7435388
  43.7170223  36.3393783  80.5400980  44.3215080  36.2989617  79.9114801
  43.5097535  37.1864935  80.5705036  43.7759120  36.4581786  80.4517097
  53.5313995  38.6059728  81.7563218  54.3512369  38.4622694  82.0179513
  53.2508072  39.2305927  82.2979656  53.6110738  38.6770080  81.8751157
  38.9521505  35.3228401  80.4099904  38.8545783  34.5124672  80.7189960
  39.7350375  35.3020194  80.0246172  39.0537641  35.1995491  80.3986766
  61.7576253  44.8286900  74.3628133  62.4556418  45.0075028  74.8549596
  62.0728586  44.3057239  73.7398522  61.9071590  44.7780672  74.3430143
  59.9303117  40.1979297  78.4449408  59.6006447  40.6490440  77.7753106
  59.2548119  40.1195460  78.9922414  59.7813553  40.2530432  78.4272631
  67.1379525  36.1864820  76.6899018  66.8232966  36.8768298  77.1219441
  66.6206466  36.1309602  75.9884519  67.0143995  36.2799708  76.6495968
  58.3691566  50.0832537  71.6043897  57.7848781  50.5882569  72.0109761
  57.9661661  49.8574924  70.8640489  58.2230870  50.1240786  71.5548922
  62.8268781  46.3298189  70.0812818  63.0664784  46.5376173  69.2688161
  63.1484622  45.5255698  70.1901762  62.9105939  46.2412291  69.9773371
  58.1359071  38.2591585  73.9272355  58.8905039  38.6269902  73.6889406
  57.9586605  38.6331140  74.6951535  58.2213549  38.3689773  74.0057244
  56.4916136  40.6661904  70.6250468  56.3091709  40.8833785  69.7991461
  57.3541749  40.7800917  70.6809083  56.5920725  40.7151802  70.5104955
  62.1715855  37.6688315  73.6599492  62.9002015  37.4904270  73.2137649
  62.2610748  38.5106395  73.8706670  62.2922517  37.7672193  73.6253010
  56.0378163  43.9436077  69.1372942  55.3236340  43.6574256  69.5495374
  56.5222131  44.2832703  69.7779329  56.0037526  43.9517726  69.2928576
  63.2125480  52.4466031  69.5134750  63.6276629  52.1151055  68.8219245
  62.3817410  52.2134933  69.3854886  63.1513489  52.3637287  69.3925597
  65.9058871  48.6976590  68.6995951  65.8239033  48.7678777  69.5650938
  66.5438591  49.2606334  68.5079692  65.9878708  48.7915561  68.7985901
  47.9843573  45.6615165  76.6679813  48.0703825  45.2847034  77.4493343
  48.6119370  45.2875611  76.1899771  48.0900124  45.5500648  76.7125290
  63.0098981  48.7197044  71.7104558  63.8239620  49.0111937  71.5987329
  62.9458122  48.0656907  71.1362851  63.1201720  48.6662239  71.6093395
  59.5209704  47.4120852  71.1751759  59.9054857  47.1928558  71.9268304
  59.2721324  48.2383797  71.3052835  59.5411777  47.5018998  71.3052836
  57.2410141  39.0817788  76.5060540  56.3732567  39.1540388  76.5718149
  57.5285346  39.8839867  76.6948515  57.1549890  39.2111935  76.5435306
  55.1677494  42.5576048  73.9477416  54.8802289  42.1877318  73.2109363
  55.8547962  43.0270903  73.6861121  55.2266391  42.5723017  73.7992492
  58.0031165  46.4228996  75.3944821  58.7253817  46.5870154  74.9348627
  57.5239158  47.1438661  75.2884160  58.0394896  46.5527225  75.3110435
  64.4093951  39.6578172  75.5069121  65.1120304  39.4585920  75.0289080
  64.1438140  38.8854114  75.8137965  64.4740583  39.5141138  75.4814563
  52.7405688  43.3357260  74.7962697  52.8421825  44.1383422  75.1243672
  53.5361575  43.1344596  74.4985777  52.8733594  43.4243159  74.7998052
  64.4475003  51.9358845  67.0520363  65.2147988  51.9958969  66.6426215
  64.0006312  51.3639286  66.5676681  64.4948430  51.8595420  66.9198073
  53.0182743  45.9550471  75.9842091  53.3981708  46.3735015  75.3202358
  52.4438108  46.5363926  76.2910934  52.9894068  46.1028329  75.9318832
  63.5231624  36.1509644  79.5784330  62.6525182  36.1248365  79.5317640
  63.7771965  35.9786836  78.7610176  63.4325184  36.1219788  79.4504467
  60.4949603  48.2077611  68.5157473  60.7842128  48.9842493  68.7901047
  60.5821402  47.6966342  69.2171972  60.5503860  48.2469529  68.6599971
  59.5296306  42.7592794  74.4299885  59.8056041  42.0411707  74.0177452
  60.1294976  43.3577714  74.2220991  59.6589571  42.7413165  74.3380646
  63.0306827  40.4306312  72.7046480  63.4850573  40.6016872  73.4294324
  63.5046873  39.8174422  72.3044255  63.1675147  40.3657197  72.7520241
  60.3719847  47.1348846  73.8091487  61.1161892  47.5223122  74.0474437
  60.5180543  46.2906271  73.9731975  60.5030432  47.0679319  73.8685456
  62.2899422  38.9299105  78.8423348  61.4435467  39.1021913  78.7164698
  62.2870555  38.1248449  79.1789176  62.1646572  38.8360134  78.8734475
  65.2881222  43.6010874  72.7711160  64.7604241  43.6839618  72.0816869
  65.7476930  44.3428745  72.7675805  65.2783073  43.7231536  72.6685855
  57.2814287  41.8713394  67.7952055  56.9327092  42.5233119  68.2583604
  56.8010733  41.8570507  67.0675926  57.1584531  41.9656447  67.7563146
  57.6538196  44.4971924  73.3078100  57.7941157  44.9944388  74.0106741
  58.1520729  43.7958218  73.4492313  57.7479277  44.4673903  73.4329679
  57.6838419  45.3639035  70.6370676  58.3183498  45.9599460  70.5720138
  57.7664029  45.0642493  71.4516547  57.7894970  45.4079943  70.7473763
  59.2617401  41.2953010  70.6116118  59.5833242  40.8156093  69.9575381
  59.5244345  42.1052656  70.4206930  59.3483427  41.3442908  70.4871610
  54.1891406  47.5606876  73.9060222  54.6983636  48.1571383  74.2871528
  54.6625679  47.2932849  73.2236642  54.3334782  47.6092691  73.8614745
  63.0970779  37.1540304  76.3830175  62.4539097  37.0037950  76.9515313
  62.7570186  36.9082649  75.6179279  62.9515857  37.0952427  76.3533190
  56.5481938  44.1963134  76.7733403  55.8293927  44.6127267  77.0406266
  56.9194300  44.7617373  76.2225041  56.4973870  44.3412416  76.7316210
  62.3228513  43.2361134  72.1106782  61.7293352  43.5578131  71.5591349
  62.3603790  42.3902230  71.9027888  62.2402902  43.1585462  71.9989554
  58.2531092  41.7317185  76.8362728  58.7288458  42.0934265  76.2012909
  57.7519691  42.3873653  77.1162871  58.2496451  41.8811374  76.7839469
  60.2957745  43.8758385  70.2036112  60.6756710  43.8938014  69.4187227
  59.5550341  44.3212374  70.0826959  60.2426583  43.9440159  70.0699680
  61.0942499  50.7135891  71.5944902  60.2853822  50.3902565  71.5478212
  61.6017408  50.0069113  71.5273151  61.0492166  50.5617207  71.5775197
  60.2876916  40.1019913  72.8863744  61.1092610  40.2718226  72.6445439
  59.8246566  40.2567174  72.1630041  60.3408078  40.1501646  72.7435388
  35.3354126   0.7870464  62.1736303  34.5837026   0.4086003  61.9452348
  35.7840138   0.8188898  61.4255113  35.2903793   0.7356071  62.0293805
  40.7879086   1.2095834  57.6021850  40.4530455   1.8872755  57.1666072
  41.3005957   0.8201145  57.0138722  40.8144667   1.2520412  57.4508642
  40.3283378   3.1610103  63.5432962  40.7122757   3.7297001  63.0037737
  40.2642519   2.4359613  63.0638778  40.3756805   3.1385566  63.3926824
  36.7539622   5.7166446  65.8413932  37.3977078   6.1579610  66.2310090
  37.0795878   4.9119872  65.7544190  36.8971451   5.6631640  65.8859409
  37.4560202  -1.2721580  61.2133793  37.7776043  -0.7316372  60.6095101
  38.1032298  -1.8424808  61.3456083  37.5986257  -1.2762404  61.1440829
  37.5518603   1.5333243  60.1824176  37.8416902   1.1422224  59.4583403
  38.2822084   1.7149948  60.6229451  37.7025488   1.5027057  60.1406983
  35.4924519   3.5100625  63.2484326  35.2724815   3.2197980  64.0410993
  35.2719041   2.8515580  62.7202238  35.4272113   3.3700334  63.2873235
  37.6592475   4.8830015  62.0315018  38.3116533   4.3506458  62.2606044
  36.9618084   4.5298668  62.4182892  37.6523193   4.7519538  62.1227186
  42.1238971   0.1473214  60.7983077  41.8825647  -0.5858926  60.3910142
  42.3040304   0.6960070  60.1449410  42.1146595   0.1195605  60.6413300
  39.6741999   0.8054176  62.0060460  40.4391890   0.5363820  61.6843125
  39.5720089   0.3204186  62.7230523  39.7723495   0.6943741  62.0640288
  38.8999732  -0.5601729  58.7554762  38.9692553  -1.4187191  58.8947762
  39.6788188  -0.3429849  58.4273786  39.0252583  -0.6548866  58.7271919
  43.2907220   1.8635972  62.9691255  42.8987012   1.5602687  62.2514121
  43.4460292   2.7005062  62.7796209  43.2560810   1.9419809  62.8347752
  44.0597525   1.2671465  66.4021289  43.8617214   1.7562279  65.7077501
  43.4385236   1.4712706  66.9805423  43.9385090   1.3688003  66.3844513
  42.8507811   2.1342658  58.9958925  42.1337121   1.9603520  58.5306162
  43.5014549   1.8995230  58.4634411  42.8409662   2.0738450  58.8488143
  38.1320973   3.3704416  65.4249073  37.7181372   2.7078547  65.0352914
  38.8168347   3.5182275  64.9044767  38.1719345   3.2945075  65.2905570
  41.4986267   2.5294502  66.1772689  41.1002551   2.6396772  65.4093510
  40.8837487   2.7376568  66.7599249  41.3485157   2.5768070  66.1503989
  58.7245885   7.6817403  61.6546141  58.6939890   8.5362040  61.8264410
  59.3227234   7.3812696  62.2132285  58.8083043   7.7633900  61.7620943
  51.9245570   6.7693054  66.4099071  51.0683466   6.9301553  66.4608188
  51.9713224   5.8985118  66.4304132  51.8044682   6.6643856  66.4205137
  46.3086710  16.3055772  62.1736303  45.5569610  15.9271311  61.9452348
  46.7572722  16.3374206  61.4255113  46.2636377  16.2541379  62.0293805
  51.7611670  16.7281142  57.6021850  51.4263038  17.4058063  57.1666072
  52.2738540  16.3386453  57.0138722  51.7877251  16.7705720  57.4508642
  51.3015961  18.6795410  63.5432962  51.6855341  19.2482309  63.0037737
  51.2375102  17.9544921  63.0638778  51.3489388  18.6570874  63.3926824
  54.7697391   8.8285098  69.0530723  55.3153351   9.5070185  69.1124693
  54.7114268   8.6872559  68.1932305  54.8413306   8.9077100  68.9342784
  47.8871466  16.3174164  64.4399075  47.9881829  15.5074518  64.7496203
  47.2913211  16.2231111  63.8098754  47.8144005  16.1839192  64.3925314
  56.5462460  10.2569705  59.9264451  56.4301986  11.0077391  60.3556589
  57.3418347   9.9993659  60.1760538  56.6467049  10.3304552  60.0268542
  47.7272206  21.2351754  65.8413932  48.3709661  21.6764918  66.2310090
  48.0528461  20.4305180  65.7544190  47.8704034  21.1816948  65.8859409
  41.0836511  12.3394451  64.0651409  40.8486695  11.5062103  63.9583678
  41.2222151  12.6199117  63.2512610  41.0692173  12.2577954  63.9293764
  43.3826598   4.5080182  66.9635717  42.7631630   3.9172829  66.7945732
  43.2810462   5.0991617  66.3300040  43.2764273   4.5084264  66.8440706
  48.4292786  14.2463728  61.2133793  48.7508627  14.7868936  60.6095101
  49.0764882  13.6760500  61.3456083  48.5718841  14.2422904  61.1440829
  50.4794494   6.2479723  61.2968180  51.1774658   6.4267851  61.7889643
  50.7946826   5.7250063  60.6738569  50.6289831   6.1973495  61.2770190
  43.1095731   8.0532463  69.2079286  42.9854428   8.6394909  69.8429105
  43.7614015   7.5592659  69.5091561  43.1869380   8.0671268  69.3465215
  50.6682429  12.6350168  61.2847971  51.1076064  12.0267269  61.7302744
  50.5187092  12.2557542  60.5133436  50.7103895  12.4888640  61.2367139
  48.1354072  11.2294180  68.4866797  48.7803075  10.7366623  68.1677745
  48.3755849  11.3718967  69.3132875  48.2664657  11.1771622  68.5616330
  50.6740163  14.0749086  68.1373689  50.9563406  13.2800492  67.9160445
  51.4026324  14.5529674  68.1578750  50.8229727  14.0283683  68.1076705
  48.6521357   1.6172120  65.3789455  48.3224687   2.0683264  64.7093153
  47.9766359   1.5388283  65.9262461  48.5031793   1.6723255  65.3612678
  54.2691766  10.9877350  58.2378741  54.1843061  11.8438316  58.3828309
  54.7576149  10.7121674  58.9060900  54.3280663  11.0734671  58.3580822
  55.2010199   7.6062144  59.7376476  54.6721670   7.8221777  60.3973782
  55.7235219   8.2998282  59.6577445  55.1998652   7.7405281  59.8232075
  60.6558252  13.1808448  65.1109520  59.8255955  13.3919092  65.2742937
  60.6067504  12.3545503  64.8351804  60.5264987  13.0898055  65.0946886
  47.0909807  11.5025361  58.5383944  46.5067022  12.0075392  58.9449808
  46.6879902  11.2767748  57.7980536  46.9449110  11.5433609  58.4888969
  42.6453835  17.2180122  65.3407615  42.1621413  17.9430611  65.3167199
  43.4577153  17.5156252  65.4517773  42.6944583  17.3682475  65.3534895
  48.7167989  16.0112302  67.9457430  48.1994931  15.6519717  67.3418738
  49.4142380  15.4874477  67.9563496  48.7433570  15.8809990  67.8587688
  52.3731581  16.4607117  73.9073603  52.4614927  16.2733257  74.7551813
  52.8021294  15.8144546  73.5078450  52.4493684  16.3370124  73.9745354
  49.9402041  15.7438276  72.8891265  49.3772876  15.3310886  73.4130926
  50.7023064  15.6691182  73.3084408  49.9696490  15.6715677  73.0284265
  51.5487021   7.7491013  57.0152864  51.7883025   7.9568996  56.2028207
  51.8702862   6.9448521  57.1241809  51.6324179   7.6605114  56.9113417
  45.4998032  17.7336298  65.4927895  46.2018612  17.2188287  65.5500652
  45.4195516  18.0610449  66.2974770  45.5921793  17.7050524  65.6200687
  45.2134376   2.0854727  57.5590515  45.0309949   2.3026608  56.7331508
  46.0759989   2.1993740  57.6149130  45.3138965   2.1344625  57.4445002
  44.8248808  13.9242650  65.0013503  45.6637707  14.1565582  65.0487265
  44.8560577  13.0546961  64.9320539  44.9530525  13.8299596  64.9978148
  45.4501511  14.3443525  69.3026809  45.9899736  14.2014656  69.9730181
  44.7671457  14.7440276  69.6710835  45.4293665  14.3823196  69.4561230
  54.8742396  10.0234525  64.4971833  55.6299911  10.4566040  64.5360742
  54.9804720   9.3739295  65.0706469  55.0012566   9.9912009  64.5869859
  57.9122567  13.8507803  65.2474236  57.4757799  13.8544545  66.0033207
  57.5785482  14.5313302  64.8153813  57.7985187  13.9520259  65.2955069
  52.4851640  15.8916136  76.5717386  53.2692057  16.0046983  76.9373128
  52.2848235  15.0657273  76.7676072  52.5717666  15.7862855  76.6551772
  40.8538656  10.5643816  69.4561230  40.5877071   9.7482932  69.6152221
  40.8677220  10.6096971  68.5856746  40.8163378  10.4500720  69.3514712
  44.7596403   5.3628900  56.0712988  44.0454580   5.0767080  56.4835421
  45.2440372   5.7025526  56.7119376  44.7255766   5.3710550  56.2268623
  52.6422034  17.8026238  70.2183842  51.8437280  17.5625738  70.4757711
  53.0908045  17.8540630  70.9650890  52.5896645  17.7748629  70.3668766
  61.0466913  10.5688723  64.1393873  61.7083347  10.0079391  64.0389782
  60.4058325  10.0740753  64.4646564  61.0495781  10.4125132  64.1726213
  51.9343721  13.8658854  56.4474797  52.3494869  13.5343878  55.7559292
  51.1035650  13.6327756  56.3194933  51.8731730  13.7830110  56.3265644
  41.2632070  11.3502595  66.7372974  41.0807643  11.3249481  65.8845267
  41.9981739  11.8201533  66.7761883  41.3446133  11.4163957  66.6170893
  57.3331744  11.5854105  63.8805862  57.5687333  11.7299304  63.0532713
  57.4821307  12.3496513  64.2737376  57.3897547  11.7193159  63.8169466
  59.1622201  10.4255771  61.7175466  59.4930418  10.9583411  61.1115561
  59.7355289  10.4794659  62.3737417  59.2955880  10.5125340  61.7253248
  54.3754090   8.2720674  62.3999046  54.4700944   9.0109968  62.8538671
  53.7512933   7.8438149  62.8333611  54.2963120   8.3181994  62.5307194
  52.6306563  11.4506886  73.0489327  53.2045425  10.8134130  73.2037891
  52.5521367  11.4510969  72.1798984  52.7039798  11.3571998  72.9435738
  41.2302980   8.2296096  66.8872041  41.8076483   8.0932546  67.5264286
  40.5317042   7.7731880  67.1417625  41.2124001   8.1418362  67.0194331
  54.6277111  10.1169413  55.6335998  54.5457273  10.1871601  56.4990985
  55.2656831  10.6799157  55.4419739  54.7096948  10.2108385  55.7325947
  47.9870282   9.8830151  65.1010524  47.7289526   9.0501886  65.0741824
  48.0418765  10.1087764  64.2603025  47.9570060   9.7927923  64.9730661
  46.9604994   7.4367914  65.5875419  46.3854586   7.5960082  66.2239380
  46.5840671   6.8003323  65.1243870  46.8207807   7.3665727  65.6129977
  50.6278283   5.9091263  70.4467797  50.2392716   5.4845481  69.7919989
  49.9632981   6.1573413  70.9544824  50.4725211   5.8829984  70.4255665
  36.7061813   7.0807989  63.6019860  36.7922065   6.7039857  64.3833390
  37.3337611   6.7068434  63.1239818  36.8118364   6.9693471  63.6465337
  51.7317221  10.1389868  58.6444604  52.5457860  10.4304761  58.5327376
  51.6676362   9.4849730  58.0702897  51.8419960  10.0855062  58.5433442
  47.6025129  13.6111385  63.7716917  48.2399076  13.3723133  64.3168710
  48.0280201  13.8148544  63.0370077  47.7601296  13.6062395  63.7434074
  42.2937772  15.8499722  67.6551220  42.3341917  16.1214573  66.8271000
  42.8532296  16.3741630  68.0709008  42.3821118  15.9675477  67.5943108
  48.2427944   8.8313675  58.1091806  48.6273097   8.6121382  58.8608351
  47.9939565   9.6576620  58.2392882  48.2630017   8.9211821  58.2392882
  58.9763132  12.6060313  69.1202475  58.6708949  13.3388369  69.4815790
  58.2569348  12.1998242  68.8395261  58.8250474  12.6542046  69.1315612
  49.9846601  14.0883808  65.4510703  50.0585610  13.9258980  66.3052553
  50.8016108  14.2773997  65.2071184  50.1162960  14.0920550  65.5408728
  43.7452358  14.4341671  62.4805146  42.9190476  14.6803408  62.3539425
  43.8064349  14.3553751  63.3467204  43.6326525  14.4586620  62.5894091
  45.9628382   0.5010612  63.4400586  45.0950807   0.5733211  63.5058196
  46.2503586   1.3032691  63.6288562  45.8768130   0.6304759  63.4775353
  48.5251187  17.0518551  60.1824176  48.8149485  16.6607532  59.4583403
  49.2554668  17.2335256  60.6229451  48.6758071  17.0212365  60.1406983
  49.1145932  11.8536297  71.2677307  48.6157626  12.5652064  71.3462195
  49.9246157  12.1736963  71.2295469  49.1602039  12.0063145  71.2733875
  46.4657103  19.0285933  63.2484326  46.2457398  18.7383288  64.0410993
  46.2451625  18.3700888  62.7202238  46.4004697  18.8885642  63.2873235
  45.3774050  11.1159250  65.5140028  45.0887298  10.4896721  66.0485755
  46.2457398  11.0579537  65.5804708  45.4634302  11.0146794  65.6030982
  56.1651948   6.2594033  65.8322009  55.8216714   5.5384368  66.1829259
  56.2644990   6.0507884  64.9900368  56.1293991   6.1218236  65.7593689
  48.6325058  20.4015323  62.0315018  49.2849116  19.8691766  62.2606044
  47.9350667  20.0483976  62.4182892  48.6255776  20.2704846  62.1227186
  45.5806323  12.7554501  61.4382393  46.3352291  13.1367540  61.6517855
  44.9876936  13.2065645  61.8929089  45.6043037  12.8783328  61.5365271
  56.6264977  12.7219737  61.3745998  57.1923009  13.3812947  61.2904540
  55.9792880  13.0669435  61.8462400  56.6143733  12.8701679  61.4318754
  46.9004550  13.9263062  66.8122508  46.3785303  14.0663354  67.4974373
  47.2878570  13.1673726  67.0024625  46.8808251  13.8348586  66.9423585
  43.8895734   3.9768871  60.8817463  43.6020530   3.6070141  60.1449410
  44.5766202   4.4463726  60.6201168  43.9484631   3.9915840  60.7332538
  53.0971555  15.6658521  60.7983077  52.8558231  14.9326382  60.3910142
  53.2772888  16.2145378  60.1449410  53.0879179  15.6380913  60.6413300
  48.3270875  10.9567081  62.2103999  48.1313658  11.5641816  61.6164302
  48.5505221  10.2635025  61.7295673  48.3305516  10.9444607  62.0520080
  46.7249405   7.8421819  62.3284867  47.4472057   8.0062977  61.8688673
  46.2457398   8.5631484  62.2224207  46.7613136   7.9720049  62.2450481
  54.6842913   4.1785618  67.7081552  53.8454014   4.2046897  67.4719816
  54.7547280   4.8256353  68.2886899  54.5711307   4.2781744  67.7590669
  44.3757022  10.2479892  71.4339007  44.8878119  10.5264145  70.7847767
  44.0893365  10.9869186  71.8001820  44.4091885  10.3982245  71.3928885
  58.5600437   9.3853605  64.9942794  58.4734411   9.5409031  65.8477573
  58.1050917  10.0291680  64.6202199  58.4803694   9.5029360  65.0649901
  41.4623928   4.7550083  61.7302744  41.5640065   5.5576245  62.0583719
  42.2579815   4.5537419  61.4325824  41.5951834   4.8435982  61.7338099
  52.4326253   6.7064352  63.6168354  52.1860967   6.6260103  64.4505143
  52.7611376   5.9217820  63.4230881  52.4447497   6.5790617  63.7115877
  56.3274302  13.4147711  67.4055135  56.1888661  14.1128757  67.9103877
  55.5474300  13.2596368  67.0491317  56.1917529  13.4947878  67.4281409
  48.3923280   9.4421070  73.0291337  48.5366656  10.0222279  72.3934447
  48.7398929   9.8197367  73.7341191  48.4650742   9.5841774  73.0390332
  50.5643198   8.6411239  70.8116468  49.8166512   8.8342253  70.4064746
  50.7184723   7.8156458  70.5740590  50.4765625   8.5476350  70.7161874
  47.4651035  17.6323842  69.8952363  47.6140599  17.0726758  69.2425768
  48.2451037  17.7115844  70.2784882  47.6025129  17.5609408  69.8549313
  57.8227675  12.7725965  58.1671634  57.4434483  11.9863103  58.1600923
  57.1593920  13.3212822  58.0243278  57.6686149  12.7370789  58.1452431
  49.9904336  17.8038485  71.1736854  49.9148007  17.1347296  71.7287643
  49.9194195  18.5056273  71.6877521  49.9684943  17.8083392  71.3313702
  50.6474583  16.3239484  62.0060460  51.4124474  16.0549128  61.6843125
  50.5452673  15.8389494  62.7230523  50.7456078  16.2129049  62.0640288
  48.6827353   4.5263893  68.5453696  47.8923427   4.3455354  68.8671032
  49.0787975   3.7490846  68.5283990  48.6244229   4.3851354  68.5906244
  53.1693243  13.3551668  53.9860410  53.9366228  13.4151793  53.5766261
  52.7224552  12.7832109  53.5016728  53.2166671  13.2788243  53.8538120
  54.0671039  12.1606324  66.2713142  53.3916041  11.9291556  66.7726529
  54.0763415  11.5527507  65.6455247  53.9689543  12.0365249  66.2529294
  51.1965183   7.0024153  73.0277195  51.1324324   7.8634109  72.8997332
  51.3362371   6.6856146  72.2272746  51.2080653   7.0824319  72.8905408
  56.0687773  15.0171456  58.5023320  56.1507611  15.8238442  58.1784771
  56.5537516  15.0367415  59.2264093  56.1524931  15.1392118  58.5610219
  49.8784277   9.6956292  67.1693398  49.4546526   9.8960791  66.4332416
  49.7029132   8.8485140  67.2817698  49.7895157   9.6005073  67.0767088
  49.3795970  21.2106805  69.6314855  49.8691900  20.5117594  69.4490520
  48.8080202  20.9130675  70.2190912  49.3680500  21.0633029  69.6915896
  45.1666722  10.1908343  62.6021370  45.3231341  10.1255146  63.4577362
  45.5067315  10.9656896  62.3900050  45.2399957  10.2957541  62.6975965
  51.7045866   9.5666227  61.4714734  52.2461412   9.0636608  61.9353354
  52.0192425   9.5131422  60.6604219  51.8310263   9.4845648  61.4198546
  49.8732316  14.9583578  58.7554762  49.9425136  14.0998117  58.8947762
  50.6520771  15.1755459  58.4273786  49.9985166  14.8636442  58.7271919
  54.2639804  17.3821280  62.9691255  53.8719595  17.0787995  62.2514121
  54.4192876  18.2190370  62.7796209  54.2293393  17.4605116  62.8347752
  41.7400983   7.3743294  62.9182138  42.1199948   7.7927839  62.2542405
  41.1656348   7.9556749  63.2250981  41.7112308   7.5221153  62.8658879
  54.4279478  13.9471269  62.9097285  54.0694133  14.1185911  63.6861318
  53.9418189  14.4084474  62.3525284  54.3038175  14.0410240  62.9422555
  49.2167844   9.6270434  55.4497520  49.5060369  10.4035316  55.7241094
  49.3039643   9.1159165  56.1512019  49.2722100   9.6662352  55.5940018
  55.5884218  14.8375165  73.8564486  56.2263938  14.3435360  73.5226942
  54.9458309  14.7652565  73.2716713  55.5878444  14.7534173  73.7206841
  57.3141218   6.6864310  68.4230402  56.8868826   6.5990659  67.6678502
  56.6767271   6.7942086  69.0085246  57.1570825   6.6896970  68.3975844
  55.6438474  15.5294973  70.4969843  56.4330852  15.1784038  70.6171925
  55.8182072  16.3431361  70.2346477  55.7858756  15.5980830  70.4757711
  45.3831785   8.9403699  67.5497632  44.5419791   8.8407573  67.7576526
  45.5921793   9.7099179  67.9011953  45.2896477   9.0395742  67.6324947
  42.8607352   6.5623235  65.3782383  42.4664049   6.6366247  64.6032492
  42.3047469   6.9481182  65.9290744  42.7210164   6.6305010  65.3450042
  49.1948450   6.8685098  66.7995229  48.8911587   6.3141086  67.4005637
  48.4927870   7.0477308  66.3123264  49.0464659   6.8129880  66.8164935
  48.2514547   4.1785618  61.3639931  48.5274281   3.4604530  60.9517499
  48.8513216   4.7770537  61.1561037  48.3807811   4.1605988  61.2720693
  47.2566801  14.0834818  71.5067327  47.1487156  14.0936881  72.3729385
  47.4662582  14.9089599  71.3172281  47.2716912  14.2075893  71.6071419
  45.2740593  11.3347461  68.9689265  44.6828526  11.9756959  68.9392280
  46.0361616  11.7585078  68.9420564  45.2988853  11.4923299  68.9604412
  55.0330109  16.7856772  66.4021289  54.8349797  17.2747587  65.7077501
  54.4117820  16.9898014  66.9805423  54.9117673  16.8873311  66.3844513
  49.0938087   8.5541669  60.7431534  49.8380132   8.9415946  60.9814483
  49.2398783   7.7099095  60.9072021  49.2248672   8.4872142  60.8025503
  52.0815963   4.1267143  66.6425453  51.6075917   3.6008905  67.1530764
  52.4534099   3.5796615  66.0740314  52.0665852   3.9683139  66.6340600
  58.3452694   9.1869518  68.0532233  58.1050916   8.3475933  68.0574660
  58.8244701   9.2669685  68.7773007  58.3804877   9.0750918  68.1607036
  54.0099463   5.0203697  59.7051207  53.4822481   5.1032441  59.0156916
  54.4695171   5.7621569  59.7015851  54.0001313   5.1424360  59.6025902
  60.3457881   5.9670975  66.0061493  60.1067651   5.9266810  65.1682277
  60.5091782   6.8142127  66.1327214  60.3348184   6.0863060  65.9014974
  56.9503911  10.3520925  71.9366538  57.6738110   9.8993451  71.7577558
  56.6853873  10.6325590  71.1538866  57.0185184  10.3271893  71.7945253
  45.8190779   4.9481098  68.6719417  45.1943849   4.9599490  68.0645370
  45.4836374   5.4241273  69.3210657  45.6776271   5.0199615  68.6775985
  46.0032528   3.2906217  54.7292102  45.6545332   3.9425942  55.1923651
  45.5228974   3.2763330  54.0015973  45.8802772   3.3849270  54.6903193
  42.5316455  13.0081558  70.1123181  42.0016379  12.3173997  70.1618156
  42.8041548  12.9991744  69.2835890  42.4941177  12.9048690  69.9970597
  53.5636545  13.5907261  58.8360864  54.2870744  14.0565374  58.6925437
  53.1237136  13.6580870  58.0858461  53.6052237  13.6691097  58.7045645
  52.7322700  10.4504803  70.0861553  52.1179693   9.9062853  70.3810188
  53.2489985   9.9369039  69.6067369  52.7178363  10.2941212  70.0585781
  51.9718997  11.5209073  67.8205851  51.5446605  10.8958792  67.3871287
  51.9643942  11.2383995  68.6464859  51.9078139  11.3861854  67.8785679
  37.8112297   9.6809323  67.4691529  37.7055746   9.6356167  66.6043614
  37.0612517  10.0263103  67.7505814  37.6847900   9.7250231  67.3828859
  46.5806029   1.1248646  67.4154130  46.6204401   1.6257852  68.1288837
  45.7555694   1.2159039  67.1460053  46.4645555   1.2130462  67.4804668
  48.0020393   7.6409156  69.7128029  47.1712322   7.8082974  69.5063277
  47.9471910   7.2645106  70.4976914  47.8709808   7.6098887  69.7976557
  46.3756437   5.9164747  60.2418146  46.5159398   6.4137211  60.9446788
  46.8738969   5.2151042  60.3832360  46.4697517   5.8866726  60.3669725
  46.4056659   6.7831858  57.5710723  47.0401738   7.3792283  57.5060185
  46.4882270   6.4835316  58.3856593  46.5113210   6.8272766  57.6813810
  47.9835642   2.7145834  57.5456165  48.3051483   2.2348916  56.8915428
  48.2462586   3.5245480  57.3546977  48.0701667   2.7635732  57.4211657
  51.2132615  13.7364708  71.0654981  50.7057706  14.2900555  71.5095612
  50.9159261  13.7972998  70.2473756  51.0937500  13.8271019  71.0103438
  42.9109647   8.9799699  60.8400269  43.4201876   9.5764206  61.2211575
  43.3843919   8.7125673  60.1576689  43.0553023   9.0285514  60.7954792
  53.8240395  17.6527966  58.9958925  53.1069705  17.4788828  58.5306162
  54.4747132  17.4180538  58.4634411  53.8142245  17.5923758  58.8488143
  56.4088366   6.5292554  62.7400230  55.7379556   7.0722256  62.6113295
  57.1028116   6.9987409  62.4981925  56.4117234   6.6790825  62.6855758
  50.4575100  18.6689266  67.9711988  50.2340754  17.9108095  68.3396015
  49.9684943  18.6987287  67.2492428  50.3518549  18.5611491  67.9188729
  45.2700179   5.6155957  63.7073450  44.5512168   6.0320090  63.9746313
  45.6412541   6.1810196  63.1565088  45.2192110   5.7605239  63.6656257
  54.5699759   6.2483806  69.5975445  54.5497687   6.0667102  70.4510224
  54.6178960   7.1195825  69.5735029  54.5734400   6.3500345  69.7198740
  52.5146089  12.8370998  75.5223922  52.4741944  12.1920675  74.9369078
  53.3269407  12.7807616  75.8349334  52.6289243  12.7329965  75.4820871
  49.1053557  18.8889724  65.4249073  48.6913955  18.2263855  65.0352914
  49.7900931  19.0367583  64.9044767  49.1451928  18.8130382  65.2905570
  52.4718851  18.0479810  66.1772689  52.0735134  18.1582080  65.4093510
  51.8570070  18.2561876  66.7599249  52.3217740  18.0953378  66.1503989
  51.0446753   4.6553957  59.0446829  50.4511592   4.9770954  58.4931396
  51.0822031   3.8095053  58.8367935  50.9621142   4.5778286  58.9329600
  53.9204570   4.6133462  62.4748579  53.6918263   4.6366163  61.6326938
  54.1802646   3.7890929  62.5943590  53.9250758   4.4949542  62.3673777
  46.9749332   3.1510008  63.7702775  47.4506698   3.5127088  63.1352956
  46.4737932   3.8066476  64.0502918  46.9714691   3.3004197  63.7179516
  60.2060694  12.6231776  59.5615780  60.5894299  13.3723132  59.7913877
  59.4104807  12.8697596  59.3027769  60.1454476  12.7701470  59.5573354
  49.0175985   5.2951208  57.1376159  49.3974950   5.3130837  56.3527274
  48.2768581   5.7405197  57.0167006  48.9644823   5.3632983  57.0039727
  38.7078547   7.0273184  67.1410554  38.5300308   6.5749793  67.8665470
  38.4197569   7.8299345  67.3249032  38.6391500   7.0795741  67.2754057
  54.3702128   8.2830901  66.3787945  54.8655793   7.5653896  66.3391965
  53.5601903   7.9801699  66.2642432  54.3246021   8.1328547  66.3561670
  49.8160739  12.1328714  58.5284949  49.0072062  11.8095388  58.4818258
  50.3235648  11.4261936  58.4613198  49.7710406  11.9810031  58.5115243
  40.4451017   9.5600907  64.2532313  39.5796536   9.5486598  64.1415085
  40.5449832   9.3731130  65.1003453  40.3325183   9.5306969  64.3621258
  56.4353947  11.0334588  69.0665073  56.8609018  10.5109010  68.5135498
  56.0710866  11.6315426  68.5453696  56.4440549  11.0444816  68.9074083
  46.0708026  19.3298806  67.8262419  46.3854585  20.1435194  67.8340201
  46.4801440  18.9449025  68.4944578  46.1776124  19.3927508  67.9266510
  53.0232546  14.7468853  65.3966231  53.4943724  15.4609115  65.5656216
  53.3592725  14.1467603  65.9326100  53.1427661  14.7640317  65.4998607
  53.6606492  14.5386787  72.1593923  53.1127438  13.9144671  71.8913989
  54.1219521  14.7281059  71.4438003  53.6473702  14.4745837  72.0144355
  43.4121047  13.2771914  67.4741027  44.0165904  13.2367749  66.8454848
  43.2048359  14.1243066  67.5045083  43.4709944  13.3959917  67.3857144
  53.2264819  15.5437860  68.6903265  54.0463192  15.4000826  68.9519560
  52.9458896  16.1684058  69.2319703  53.3061562  15.6148212  68.8091204
  38.6472329  12.2606532  67.3439950  38.5496607  11.4502803  67.6530007
  39.4301199  12.2398325  66.9586218  38.7488465  12.1373622  67.3326813
  69.6978469  23.2002711  61.6546141  69.6672473  24.0547348  61.8264410
  70.2959818  22.8998004  62.2132285  69.7815627  23.2819208  61.7620943
  62.8978154  22.2878362  66.4099071  62.0416049  22.4486861  66.4608188
  62.9445808  21.4170426  66.4304132  62.7777265  22.1829164  66.4205137
  57.2819294  31.8241080  62.1736303  56.5302193  31.4456619  61.9452348
  57.7305305  31.8559514  61.4255113  57.2368960  31.7726687  62.0293805
  62.7344253  32.2466450  57.6021850  62.3995622  32.9243371  57.1666072
  63.2471124  31.8571761  57.0138722  62.7609835  32.2891028  57.4508642
  62.2748545  34.1980718  63.5432962  62.6587924  34.7667617  63.0037737
  62.2107686  33.4730229  63.0638778  62.3221972  34.1756182  63.3926824
  65.7429975  24.3470406  69.0530723  66.2885935  25.0255493  69.1124693
  65.6846851  24.2057867  68.1932305  65.8145889  24.4262408  68.9342784
  58.8604050  31.8359472  64.4399075  58.9614413  31.0259826  64.7496203
  58.2645795  31.7416419  63.8098754  58.7876588  31.7024500  64.3925314
  67.5195044  25.7755013  59.9264451  67.4034569  26.5262699  60.3556589
  68.3150930  25.5178967  60.1760538  67.6199633  25.8489860  60.0268542
  58.7004789  36.7537061  65.8413932  59.3442245  37.1950226  66.2310090
  59.0261045  35.9490488  65.7544190  58.8436618  36.7002256  65.8859409
  52.0569094  27.8579759  64.0651409  51.8219279  27.0247411  63.9583678
  52.1954735  28.1384425  63.2512610  52.0424757  27.7763262  63.9293764
  54.3559182  20.0265490  66.9635717  53.7364213  19.4358137  66.7945732
  54.2543045  20.6176925  66.3300040  54.2496857  20.0269572  66.8440706
  59.4025369  29.7649036  61.2133793  59.7241210  30.3054244  60.6095101
  60.0497466  29.1945808  61.3456083  59.5451424  29.7608212  61.1440829
  61.4527077  21.7665031  61.2968180  62.1507242  21.9453159  61.7889643
  61.7679410  21.2435371  60.6738569  61.6022414  21.7158803  61.2770190
  54.0828315  23.5717771  69.2079286  53.9587011  24.1580217  69.8429105
  54.7346599  23.0777967  69.5091561  54.1601964  23.5856576  69.3465215
  61.6415013  28.1535476  61.2847971  62.0808648  27.5452577  61.7302744
  61.4919675  27.7742850  60.5133436  61.6836478  28.0073947  61.2367139
  59.1086656  26.7479488  68.4866797  59.7535658  26.2551931  68.1677745
  59.3488433  26.8904275  69.3132875  59.2397241  26.6956930  68.5616330
  61.6472747  29.5934394  68.1373689  61.9295990  28.7985800  67.9160445
  62.3758907  30.0714981  68.1578750  61.7962311  29.5468991  68.1076705
  59.6253941  17.1357428  65.3789455  59.2957271  17.5868572  64.7093153
  58.9498943  17.0573591  65.9262461  59.4764377  17.1908563  65.3612678
  65.2424349  26.5062658  58.2378741  65.1575644  27.3623624  58.3828309
  65.7308732  26.2306982  58.9060900  65.3013246  26.5919979  58.3580822
  66.8330349  13.1242951  63.6239065  66.5183790  13.8146429  64.0559488
  66.3157290  13.0687733  62.9224566  66.7094819  13.2177839  63.5836014
  66.1742782  23.1247452  59.7376476  65.6454254  23.3407085  60.3973782
  66.6967802  23.8183590  59.6577445  66.1731235  23.2590589  59.8232075
  71.6290835  28.6993756  65.1109520  70.7988538  28.9104400  65.2742937
  71.5800088  27.8730811  64.8351804  71.4997571  28.6083363  65.0946886
  58.0642390  27.0210669  58.5383944  57.4799605  27.5260700  58.9449808
  57.6612485  26.7953055  57.7980536  57.9181694  27.0618917  58.4888969
  53.6186419  32.7365430  65.3407615  53.1353997  33.4615919  65.3167199
  54.4309737  33.0341560  65.4517773  53.6677166  32.8867783  65.3534895
  59.6900573  31.5297610  67.9457430  59.1727514  31.1705025  67.3418738
  60.3874964  31.0059785  67.9563496  59.7166154  31.3995298  67.8587688
  63.3464165  31.9792424  73.9073603  63.4347511  31.7918565  74.7551813
  63.7753877  31.3329854  73.5078450  63.4226267  31.8555432  73.9745354
  60.9134625  31.2623584  72.8891265  60.3505459  30.8496194  73.4130926
  61.6755648  31.1876490  73.3084408  60.9429073  31.1900985  73.0284265
  62.5219605  23.2676321  57.0152864  62.7615608  23.4754304  56.2028207
  62.8435446  22.4633829  57.1241809  62.6056762  23.1790422  56.9113417
  57.8309895  15.1969716  60.8612402  58.5855863  15.5648033  60.6229452
  57.6537429  15.5709271  61.6291582  57.9164373  15.3067904  60.9397291
  56.4730616  33.2521606  65.4927895  57.1751195  32.7373595  65.5500652
  56.3928099  33.5795757  66.2974770  56.5654376  33.2235832  65.6200687
  57.5209523  23.4897193  74.6208310  57.6930026  23.3803087  75.4693592
  58.0578880  24.1351598  74.3839503  57.6254527  23.5689194  74.7113407
  56.1866959  17.6040035  57.5590515  56.0042533  17.8211916  56.7331508
  57.0492572  17.7179048  57.6149130  56.2871549  17.6529933  57.4445002
  55.7981391  29.4427958  65.0013503  56.6370291  29.6750890  65.0487265
  55.8293161  28.5732269  64.9320539  55.9263109  29.3484904  64.9978148
  56.4234094  29.8628833  69.3026809  56.9632319  29.7199964  69.9730181
  55.7404041  30.2625584  69.6710835  56.4026248  29.9008504  69.4561230
  61.8666679  14.6066446  60.5939539  62.5952839  14.4282401  60.1477695
  61.9561572  15.4484526  60.8046717  61.9873341  14.7050324  60.5593057
  65.8474979  25.5419833  64.4971833  66.6032494  25.9751348  64.5360742
  65.9537304  24.8924603  65.0706469  65.9745150  25.5097317  64.5869859
  68.8855150  29.3693111  65.2474236  68.4490382  29.3729853  66.0033207
  68.5518066  30.0498610  64.8153813  68.7717770  29.4705566  65.2955069
  63.4584224  31.4101443  76.5717386  64.2424641  31.5232291  76.9373128
  63.2580819  30.5842581  76.7676072  63.5450249  31.3048163  76.6551772
  51.8271240  26.0829124  69.4561230  51.5609655  25.2668240  69.6152221
  51.8409804  26.1282279  68.5856746  51.7895962  25.9686028  69.3514712
  55.7328986  20.8814208  56.0712988  55.0187164  20.5952388  56.4835421
  56.2172955  21.2210834  56.7119376  55.6988350  20.8895858  56.2268623
  56.5769846  19.6207502  72.1028238  55.8841643  19.1504482  72.3488969
  57.1930173  19.3945806  72.6769945  56.5654376  19.5174634  72.2237391
  63.6154617  33.3211546  70.2183842  62.8169863  33.0811046  70.4757711
  64.0640629  33.3725938  70.9650890  63.5629229  33.2933937  70.3668766
  72.0199497  26.0874031  64.1393873  72.6815931  25.5264699  64.0389782
  71.3790909  25.5926061  64.4646564  72.0228364  25.9310440  64.1726213
  62.9076304  29.3844162  56.4474797  63.3227453  29.0529186  55.7559292
  62.0768234  29.1513064  56.3194933  62.8464313  29.3015418  56.3265644
  52.2364653  26.8687903  66.7372974  52.0540226  26.8434789  65.8845267
  52.9714322  27.3386841  66.7761883  52.3178717  26.9349265  66.6170893
  68.3064327  27.1039413  63.8805862  68.5419917  27.2484612  63.0532713
  68.4553891  27.8681821  64.2737376  68.3630131  27.2378467  63.8169466
  55.3010405  23.5872906  73.2455083  56.0250377  23.5725936  73.7319978
  55.4026541  24.2968261  72.7477051  55.4228614  23.6897609  73.2433870
  70.1354784  25.9441079  61.7175466  70.4663001  26.4768719  61.1115561
  70.7087872  25.9979967  62.3737417  70.2688463  26.0310648  61.7253248
  65.3486673  23.7905982  62.3999046  65.4433528  24.5295276  62.8538671
  64.7245517  23.3623457  62.8333611  65.2695703  23.8367302  62.5307194
  63.6039147  26.9692194  73.0489327  64.1778009  26.3319438  73.2037891
  63.5253951  26.9696277  72.1798984  63.6772382  26.8757306  72.9435738
  52.2035564  23.7481404  66.8872041  52.7809066  23.6117854  67.5264286
  51.5049625  23.2917188  67.1417625  52.1856585  23.6603670  67.0194331
  65.6009695  25.6354721  55.6335998  65.5189857  25.7056909  56.4990985
  66.2389415  26.1984465  55.4419739  65.6829532  25.7293692  55.7325947
  58.9602866  25.4015459  65.1010524  58.7022110  24.5687194  65.0741824
  59.0151349  25.6273072  64.2603025  58.9302644  25.3113231  64.9730661
  64.0403916  17.5043910  65.2014617  63.3360243  17.0153096  65.3598536
  64.0888890  17.5166384  64.3303061  63.9433967  17.4333558  65.0953957
  57.9337578  22.9553222  65.5875419  57.3587169  23.1145390  66.2239380
  57.5573254  22.3188631  65.1243870  57.7940390  22.8851035  65.6129977
  61.6010866  21.4276571  70.4467797  61.2125299  21.0030789  69.7919989
  60.9365565  21.6758721  70.9544824  61.4457794  21.4015292  70.4255665
  71.2434136  21.1851576  63.2215627  70.9870700  20.3731517  63.0313510
  72.0863450  21.1929143  62.9945815  71.3300161  21.0663573  63.1600445
  47.6794397  22.5993297  63.6019860  47.7654649  22.2225165  64.3833390
  48.3070194  22.2253742  63.1239818  47.7850948  22.4878779  63.6465337
  62.7049805  25.6575176  58.6444604  63.5190444  25.9490068  58.5327376
  62.6408946  25.0035038  58.0702897  62.8152544  25.6040370  58.5433442
  58.5757713  29.1296693  63.7716917  59.2131660  28.8908441  64.3168710
  59.0012785  29.3333852  63.0370077  58.7333879  29.1247703  63.7434074
  53.2670355  31.3685030  67.6551220  53.3074501  31.6399881  66.8271000
  53.8264879  31.8926938  68.0709008  53.3553701  31.4860785  67.5943108
  59.2160528  24.3498983  58.1091806  59.6005681  24.1306690  58.8608351
  58.9672148  25.1761928  58.2392882  59.2362601  24.4397129  58.2392882
  69.9495716  28.1245621  69.1202475  69.6441533  28.8573677  69.4815790
  69.2301931  27.7183550  68.8395261  69.7983058  28.1727354  69.1315612
  60.9579185  29.6069116  65.4510703  61.0318193  29.4444288  66.3052553
  61.7748691  29.7959305  65.2071184  61.0895544  29.6105858  65.5408728
  54.7184942  29.9526979  62.4805146  53.8923059  30.1988716  62.3539425
  54.7796933  29.8739059  63.3467204  54.6059109  29.9771928  62.5894091
  56.9360965  16.0195920  63.4400586  56.0683391  16.0918519  63.5058196
  57.2236170  16.8217998  63.6288562  56.8500713  16.1490067  63.4775353
  59.4983771  32.5703859  60.1824176  59.7882069  32.1792840  59.4583403
  60.2287252  32.7520564  60.6229451  59.6490655  32.5397673  60.1406983
  60.0878516  27.3721605  71.2677307  59.5890210  28.0837372  71.3462195
  60.8978740  27.6922271  71.2295469  60.1334623  27.5248453  71.2733875
  57.4389686  34.5471241  63.2484326  57.2189982  34.2568596  64.0410993
  57.2184208  33.8886196  62.7202238  57.3737280  34.4070950  63.2873235
  56.3506633  26.6344558  65.5140028  56.0619882  26.0082029  66.0485755
  57.2189982  26.5764845  65.5804708  56.4366885  26.5332102  65.6030982
  67.1384531  21.7779341  65.8322009  66.7949297  21.0569676  66.1829259
  67.2377574  21.5693192  64.9900368  67.1026574  21.6403544  65.7593689
  59.6057642  35.9200631  62.0315018  60.2581700  35.3877073  62.2606044
  58.9083251  35.5669283  62.4182892  59.5988360  35.7890154  62.1227186
  56.5538907  28.2739809  61.4382393  57.3084875  28.6552848  61.6517855
  55.9609519  28.7250952  61.8929089  56.5775620  28.3968636  61.5365271
  67.5997560  28.2405045  61.3745998  68.1655593  28.8998255  61.2904540
  66.9525464  28.5854743  61.8462400  67.5876317  28.3886986  61.4318754
  57.8737133  29.4448370  66.8122508  57.3517887  29.5848662  67.4974373
  58.2611154  28.6859034  67.0024625  57.8540834  29.3533894  66.9423585
  54.8628317  19.4954179  60.8817463  54.5753113  19.1255449  60.1449410
  55.5498786  19.9649034  60.6201168  54.9217215  19.5101148  60.7332538
  64.0704138  31.1843829  60.7983077  63.8290814  30.4511690  60.3910142
  64.2505471  31.7330686  60.1449410  64.0611762  31.1566221  60.6413300
  59.3003459  26.4752389  62.2103999  59.1046242  27.0827124  61.6164302
  59.5237805  25.7820333  61.7295673  59.3038100  26.4629915  62.0520080
  57.6981989  23.3607127  62.3284867  58.4204641  23.5248285  61.8688673
  57.2189982  24.0816792  62.2224207  57.7345720  23.4905357  62.2450481
  65.6575497  19.6970926  67.7081552  64.8186597  19.7232205  67.4719816
  65.7279864  20.3441661  68.2886899  65.5443890  19.7967052  67.7590669
  55.3489606  25.7665199  71.4339007  55.8610703  26.0449453  70.7847767
  55.0625948  26.5054494  71.8001820  55.3824469  25.9167553  71.3928885
  64.1044775  16.5956303  62.4409168  64.8071128  16.3964051  61.9629127
  63.8388964  15.8232245  62.7478012  64.1691407  16.4519269  62.4154610
  69.5333020  24.9038913  64.9942794  69.4466995  25.0594339  65.8477573
  69.0783500  25.5476988  64.6202199  69.4536277  25.0214668  65.0649901
  52.4356512  20.2735391  61.7302744  52.5372649  21.0761553  62.0583719
  53.2312399  20.0722727  61.4325824  52.5684418  20.3621290  61.7338099
  58.8673331  17.8591588  71.4940049  58.6756528  17.8746722  72.3439472
  59.7171927  18.0555262  71.4706704  58.9649053  17.8905939  71.6163344
  53.2520244  20.3882570  69.4723865  53.1105736  19.5366510  69.5968373
  53.5360808  20.4311230  68.6486071  53.2728090  20.2682320  69.3691489
  63.4058837  22.2249660  63.6168354  63.1593551  22.1445411  64.4505143
  63.7343960  21.4403128  63.4230881  63.4180080  22.0975925  63.7115877
  67.3006885  28.9333019  67.4055135  67.1621245  29.6314065  67.9103877
  66.5206883  28.7781676  67.0491317  67.1650112  29.0133186  67.4281409
  59.3655864  24.9606378  73.0291337  59.5099240  25.5407586  72.3934447
  59.7131512  25.3382675  73.7341191  59.4383325  25.1027082  73.0390332
  61.5375781  24.1596547  70.8116468  60.7899095  24.3527561  70.4064746
  61.6917306  23.3341766  70.5740590  61.4498209  24.0661658  70.7161874
  58.4383619  33.1509150  69.8952363  58.5873183  32.5912066  69.2425768
  59.2183621  33.2301152  70.2784882  58.5757712  33.0794716  69.8549313
  68.7960258  28.2911273  58.1671634  68.4167067  27.5048411  58.1600923
  68.1326504  28.8398130  58.0243278  68.6418733  28.2556097  58.1452431
  60.9636919  33.3223793  71.1736854  60.8880591  32.6532604  71.7287643
  60.8926779  34.0241581  71.6877521  60.9417526  33.3268700  71.3313702
  61.7777558  18.0547097  71.7011872  62.2350172  18.7871072  71.8284664
  61.8533887  17.6313563  72.4599128  61.8568528  18.1004336  71.8312948
  54.0210549  18.3012917  72.7901316  53.4852739  17.6893275  73.1062083
  54.0828314  18.8761053  73.4434982  53.9506182  18.2959845  72.9336742
  61.6207166  31.8424792  62.0060460  62.3857057  31.5734436  61.6843125
  61.5185256  31.3574802  62.7230523  61.7188662  31.7314357  62.0640288
  59.6559936  20.0449201  68.5453696  58.8656011  19.8640661  68.8671032
  60.0520559  19.2676154  68.5283990  59.5976812  19.9036662  68.5906244
  64.1425827  28.8736976  53.9860410  64.9098812  28.9337101  53.5766261
  63.6957136  28.3017417  53.5016728  64.1899254  28.7973551  53.8538120
  65.0403622  27.6791632  66.2713142  64.3648624  27.4476864  66.7726529
  65.0495999  27.0712814  65.6455247  64.9422127  27.5550557  66.2529294
  62.1697766  22.5209460  73.0277195  62.1056908  23.3819417  72.8997332
  62.3094954  22.2041454  72.2272746  62.1813236  22.6009627  72.8905408
  67.0420357  30.5356764  58.5023320  67.1240194  31.3423750  58.1784771
  67.5270099  30.5552723  59.2264093  67.1257515  30.6577426  58.5610219
  60.8516860  25.2141600  67.1693398  60.4279109  25.4146099  66.4332416
  60.6761715  24.3670448  67.2817698  60.7627741  25.1190381  67.0767088
  60.3528554  36.7292113  69.6314855  60.8424484  36.0302902  69.4490520
  59.7812786  36.4315983  70.2190912  60.3413084  36.5818336  69.6915896
  56.1399305  25.7093651  62.6021370  56.2963924  25.6440454  63.4577362
  56.4799898  26.4842204  62.3900050  56.2132540  25.8142849  62.6975965
  62.6778450  25.0851535  61.4714734  63.2193995  24.5821916  61.9353354
  62.9925009  25.0316730  60.6604219  62.8042847  25.0030956  61.4198546
  60.8464900  30.4768886  58.7554762  60.9157720  29.6183425  58.8947762
  61.6253355  30.6940767  58.4273786  60.9717750  30.3821750  58.7271919
  63.8267719  19.9787839  71.5237034  64.0409689  19.3398754  70.9700388
  63.2101618  20.4233663  71.0944896  63.7673048  19.9497983  71.3787465
  65.2372387  32.9006588  62.9691255  64.8452179  32.5973303  62.2514121
  65.3925459  33.7375678  62.7796209  65.2025977  32.9790424  62.8347752
  52.7133567  22.8928602  62.9182138  53.0932532  23.3113147  62.2542405
  52.1388932  23.4742057  63.2250981  52.6844892  23.0406461  62.8658879
  65.4012062  29.4656576  62.9097285  65.0426717  29.6371219  63.6861318
  64.9150773  29.9269782  62.3525284  65.2770759  29.5595548  62.9422555
  63.2182448  13.0887775  66.5124377  62.3476006  13.0626496  66.4657686
  63.4722789  12.9164967  65.6950223  63.1276008  13.0597919  66.3844514
  60.1900427  25.1455742  55.4497520  60.4792952  25.9220624  55.7241094
  60.2772226  24.6344473  56.1512019  60.2454684  25.1847660  55.5940018
  60.2431588  15.0994003  67.9697847  59.7270077  14.4074195  68.0949426
  59.6825517  15.7664780  67.9160446  60.0838102  15.0957261  67.9803913
  62.3123822  15.6386963  69.7990700  61.9255575  15.6635995  70.5804230
  61.8256759  15.0728642  69.3465216  62.1836331  15.5582714  69.8478603
  66.5616801  30.3560472  73.8564486  67.1996522  29.8620668  73.5226942
  65.9190893  30.2837873  73.2716713  66.5611028  30.2719481  73.7206841
  68.2873801  22.2049618  68.4230402  67.8601409  22.1175967  67.6678502
  67.6499854  22.3127394  69.0085246  68.1303409  22.2082278  68.3975844
  66.6171058  31.0480281  70.4969843  67.4063436  30.6969345  70.6171925
  66.7914656  31.8616669  70.2346477  66.7591340  31.1166138  70.4757711
  56.3564368  24.4589006  67.5497632  55.5152375  24.3592881  67.7576526
  56.5654376  25.2284487  67.9011953  56.2629061  24.5581050  67.6324947
  53.8339935  22.0808543  65.3782383  53.4396633  22.1551555  64.6032492
  53.2780052  22.4666490  65.9290744  53.6942748  22.1490318  65.3450042
  65.4704882  15.0589837  65.0586262  65.6754475  14.9912145  65.9043259
  65.1431306  15.8648659  64.9907439  65.4520130  15.1675778  65.1745917
  60.1681033  22.3870406  66.7995229  59.8644171  21.8326394  67.4005637
  59.4660454  22.5662616  66.3123264  60.0197243  22.3315188  66.8164935
  59.2247130  19.6970925  61.3639931  59.5006865  18.9789838  60.9517499
  59.8245800  20.2955845  61.1561037  59.3540395  19.6791296  61.2720693
  58.2299384  29.6020126  71.5067327  58.1219739  29.6122188  72.3729385
  58.4395166  30.4274907  71.3172281  58.2449495  29.7261201  71.6071419
  68.7238570  15.6121602  64.5389027  68.1112883  16.0992004  64.9242759
  68.8202745  14.9365093  65.0826678  68.6476467  15.5839910  64.6767885
  62.7257651  17.3684443  59.6386526  63.1801397  17.5395003  60.3634371
  63.1997696  16.7552553  59.2384302  62.8625971  17.3035328  59.6860288
  56.2473176  26.8532769  68.9689265  55.6561109  27.4942267  68.9392280
  57.0094200  27.2770386  68.9420564  56.2721437  27.0108607  68.9604412
  56.6433799  18.0134766  69.6357282  57.1035281  18.0873696  70.3732406
  56.6889906  18.8116021  69.2857104  56.7184354  18.1428914  69.6930039
  58.2917149  18.6801461  74.2029310  57.9002714  18.0334808  74.6385087
  58.4603011  19.2712897  74.8223565  58.2588059  18.6715729  74.3592016
  66.0062692  32.3042080  66.4021289  65.8082381  32.7932895  65.7077501
  65.3850403  32.5083322  66.9805423  65.8850257  32.4058619  66.3844513
  60.0670671  24.0726977  60.7431534  60.8112716  24.4601253  60.9814483
  60.2131367  23.2284403  60.9072021  60.1981256  24.0057450  60.8025503
  61.9850246  15.8677236  65.7763395  61.1386291  16.0400044  65.6504745
  61.9821379  15.0626580  66.1129223  61.8597396  15.7738265  65.8074522
  63.0548547  19.6452450  66.6425453  62.5808501  19.1194213  67.1530764
  63.4266682  19.0981923  66.0740314  63.0398436  19.4868447  66.6340600
  53.4321577  21.6423957  72.0108999  54.2947190  21.5419666  71.9246328
  53.1013360  21.0618666  71.4494571  53.5106773  21.5415584  71.9154405
  69.3185277  24.7054826  68.0532233  69.0783500  23.8661241  68.0574660
  69.7977284  24.7854993  68.7773007  69.3537461  24.5936226  68.1607036
  64.9832046  20.5389005  59.7051207  64.4555065  20.6217749  59.0156916
  65.4427754  21.2806877  59.7015851  64.9733897  20.6609667  59.6025902
  71.3190464  21.4856283  66.0061493  71.0800234  21.4452117  65.1682277
  71.4824365  22.3327435  66.1327214  71.3080768  21.6048368  65.9014974
  67.9236494  25.8706233  71.9366538  68.6470693  25.4178759  71.7577558
  67.6586457  26.1510898  71.1538866  67.9917768  25.8457201  71.7945253
  56.7923363  20.4666406  68.6719417  56.1676433  20.4784798  68.0645370
  56.4568958  20.9426581  69.3210657  56.6508855  20.5384923  68.6775985
  56.9765111  18.8091525  54.7292102  56.6277916  19.4611250  55.1923651
  56.4961557  18.7948638  54.0015973  56.8535355  18.9034578  54.6903193
  53.5049038  28.5266866  70.1123181  52.9748963  27.8359305  70.1618156
  53.7774132  28.5177052  69.2835890  53.4673761  28.4233998  69.9970597
  64.5369129  29.1092569  58.8360864  65.2603328  29.5750682  58.6925437
  64.0969720  29.1766178  58.0858461  64.5784821  29.1876405  58.7045645
  63.7055284  25.9690111  70.0861553  63.0912277  25.4248161  70.3810188
  64.2222569  25.4554347  69.6067369  63.6910946  25.8126520  70.0585781
  62.9451581  27.0394381  67.8205851  62.5179189  26.4144100  67.3871287
  62.9376525  26.7569303  68.6464859  62.8810722  26.9047162  67.8785679
  56.0614108  22.0759554  70.8894285  56.2207595  21.3202878  71.2946007
  55.8807002  22.6250494  71.5435023  56.0579467  22.0453368  71.0456991
  61.2737291  17.9163135  68.0348385  61.2979778  17.3823248  67.3461165
  61.5248764  17.4080444  68.6973976  61.3147209  17.7624039  68.0313030
  48.7844881  25.1994630  67.4691529  48.6788330  25.1541475  66.6043614
  48.0345100  25.5448411  67.7505814  48.6580483  25.2435539  67.3828859
  57.5538613  16.6433954  67.4154130  57.5936985  17.1443160  68.1288837
  56.7288278  16.7344347  67.1460053  57.4378139  16.7315770  67.4804668
  59.7368226  26.2094694  75.5174424  58.8863856  26.3466408  75.6532069
  59.8996354  25.4758472  75.9622126  59.6352089  26.1208795  75.6030023
  58.9752976  23.1594464  69.7128029  58.1444906  23.3268281  69.5063277
  58.9204493  22.7830414  70.4976914  58.8442391  23.1284195  69.7976557
  57.3489020  21.4350055  60.2418146  57.4891981  21.9322519  60.9446788
  57.8471553  20.7336349  60.3832360  57.4430101  21.4052034  60.3669725
  57.3789243  22.3017166  57.5710723  58.0134322  22.8977591  57.5060185
  57.4614853  22.0020624  58.3856593  57.4845793  22.3458074  57.6813810
  58.9568225  18.2331141  57.5456165  59.2784066  17.7534224  56.8915428
  59.2195169  19.0430788  57.3546977  59.0434251  18.2821039  57.4211657
  62.1865198  29.2550016  71.0654981  61.6790289  29.8085863  71.5095612
  61.8891844  29.3158306  70.2473756  62.0670083  29.3456327  71.0103438
  64.3527380  17.6203335  69.9079644  64.7782452  17.1675862  69.2963171
  63.7384373  17.0663406  70.1844432  64.3256026  17.4717312  69.8584670
  53.8842230  24.4985007  60.8400269  54.3934460  25.0949514  61.2211575
  54.3576503  24.2310981  60.1576689  54.0285606  24.5470822  60.7954792
  64.7972978  33.1713274  58.9958925  64.0802288  32.9974136  58.5306162
  65.4479716  32.9365846  58.4634411  64.7874829  33.1109066  58.8488143
  62.7921603  14.0918435  63.3170221  62.1489921  13.9416082  63.8855360
  62.4521010  13.8460781  62.5519326  62.6466681  14.0330558  63.2873236
  67.3820950  22.0477862  62.7400230  66.7112140  22.5907564  62.6113295
  68.0760700  22.5172717  62.4981925  67.3849817  22.1976133  62.6855758
  61.4307683  34.1874574  67.9711988  61.2073338  33.4293403  68.3396015
  60.9417527  34.2172595  67.2492428  61.3251132  34.0796799  67.9188729
  67.5449077  18.5033746  65.6490603  67.8976687  18.0763469  66.3236402
  66.6863879  18.4184589  65.7791680  67.4698522  18.4278486  65.7685614
  56.2432762  21.1341265  63.7073450  55.5244751  21.5505398  63.9746313
  56.6145124  21.6995504  63.1565088  56.1924694  21.2790547  63.6656257
  65.5432343  21.7669114  69.5975445  65.5230270  21.5852409  70.4510224
  65.5911544  22.6381133  69.5735029  65.5466984  21.8685653  69.7198740
  63.4878673  28.3556306  75.5223922  63.4474528  27.7105983  74.9369078
  64.3001991  28.2992924  75.8349334  63.6021826  28.2515273  75.4820871
  60.0786140  34.4075032  65.4249073  59.6646539  33.7449162  65.0352914
  60.7633515  34.5552891  64.9044767  60.1184512  34.3315690  65.2905570
  63.4451434  33.5665117  66.1772689  63.0467718  33.6767388  65.4093510
  62.8302654  33.7747184  66.7599249  63.2950324  33.6138685  66.1503989
  62.0179337  20.1739265  59.0446829  61.4244176  20.4956262  58.4931396
  62.0554614  19.3280361  58.8367935  61.9353726  20.0963594  58.9329600
  64.8937153  20.1318770  62.4748579  64.6650846  20.1551471  61.6326938
  65.1535229  19.3076237  62.5943590  64.8983341  20.0134850  62.3673777
  59.1756382  21.9853243  72.0773680  58.6635285  21.3774426  72.4358711
  59.0035878  22.7009835  72.5447655  59.0746019  22.0016542  72.1989903
  54.0222096  20.4290818  74.7276041  53.8524686  21.0892193  74.1824248
  53.5788046  20.6397379  75.4488530  53.9321430  20.5576800  74.7537671
  57.9481916  18.6695316  63.7702775  58.4239282  19.0312396  63.1352956
  57.4470515  19.3251784  64.0502918  57.9447275  18.8189505  63.7179516
  71.1793277  28.1417084  59.5615780  71.5626883  28.8908440  59.7913877
  70.3837390  28.3882904  59.3027769  71.1187059  28.2886778  59.5573354
  50.9224161  23.3337684  69.9864531  50.3750880  22.6638329  70.1045400
  51.7116539  22.9667532  70.0507998  50.9576344  23.1802670  70.0133232
  60.7708569  22.9945141  75.4827942  61.5219896  23.3096818  75.7967496
  60.9631146  22.7924312  74.6561864  60.9099983  23.0112523  75.4071338
  59.9908569  20.8136516  57.1376159  60.3707534  20.8316145  56.3527274
  59.2501165  21.2590505  57.0167006  59.9377406  20.8818291  57.0039727
  67.6193859  19.1218707  62.7251738  67.6188086  18.9667364  63.5836014
  67.4150039  19.9681694  62.6693123  67.5893637  19.2239328  62.8439677
  49.6811130  22.5458492  67.1410554  49.5032891  22.0935101  67.8665470
  49.3930152  23.3484653  67.3249032  49.6124083  22.5981049  67.2754057
  65.3434711  23.8016209  66.3787945  65.8388377  23.0839204  66.3391965
  64.5334487  23.4987007  66.2642432  65.2978605  23.6513855  66.3561670
  60.7893323  27.6514022  58.5284949  59.9804646  27.3280696  58.4818258
  61.2968232  26.9447244  58.4613198  60.7442990  27.4995339  58.5115243
  51.4183600  25.0786215  64.2532313  50.5529120  25.0671906  64.1415085
  51.5182416  24.8916438  65.1003453  51.3057767  25.0492277  64.3621258
  67.4086530  26.5519896  69.0665073  67.8341602  26.0294318  68.5135498
  67.0443450  27.1500734  68.5453696  67.4173133  26.5630123  68.9074083
  57.0440610  34.8484114  67.8262419  57.3587169  35.6620502  67.8340201
  57.4534023  34.4634333  68.4944578  57.1508708  34.9112816  67.9266510
  63.9965130  30.2654161  65.3966231  64.4676308  30.9794423  65.5656216
  64.3325308  29.6652911  65.9326100  64.1160245  30.2825625  65.4998607
  64.6339076  30.0572095  72.1593923  64.0860022  29.4329978  71.8913989
  65.0952105  30.2466367  71.4438003  64.6206285  29.9931145  72.0144355
  59.9827739  17.0398044  59.8203791  60.8043434  17.2096357  59.5785485
  59.5197390  17.1945305  59.0970088  60.0358902  17.0879777  59.6775435
  58.5723071  15.0340806  70.6002219  59.1167484  14.6931933  71.1906561
  58.6260007  15.8926268  70.7423504  58.6612191  15.1096066  70.7084093
  54.3853630  28.7957222  67.4741027  54.9898487  28.7553056  66.8454848
  54.1780943  29.6428374  67.5045083  54.4442527  28.9145225  67.3857144
  64.1997402  31.0623168  68.6903265  65.0195776  30.9186134  68.9519560
  63.9191480  31.6869366  69.2319703  64.2794146  31.1333520  68.8091204
  49.6204912  27.7791840  67.3439950  49.5229190  26.9688111  67.6530007
  50.4033782  27.7583633  66.9586218  49.7221049  27.6558930  67.3326813
  73.8710737  37.8063670  66.4099071  73.0148633  37.9672168  66.4608188
  73.9178391  36.9355734  66.4304132  73.7509849  37.7014472  66.4205137
  68.2551877  47.3426388  62.1736303  67.5034777  46.9641926  61.9452348
  68.7037889  47.3744822  61.4255113  68.2101544  47.2911995  62.0293805
  73.7076837  47.7651758  57.6021850  73.3728206  48.4428679  57.1666072
  74.2203708  47.3757069  57.0138722  73.7342418  47.8076336  57.4508642
  73.2481128  49.7166026  63.5432962  73.6320508  50.2852925  63.0037737
  73.1840270  48.9915537  63.0638778  73.2954556  49.6941490  63.3926824
  76.7162559  39.8655714  69.0530723  77.2618519  40.5440801  69.1124693
  76.6579435  39.7243175  68.1932305  76.7878473  39.9447716  68.9342784
  69.8336633  47.3544780  64.4399075  69.9346996  46.5445134  64.7496203
  69.2378379  47.2601727  63.8098754  69.7609172  47.2209808  64.3925314
  69.6737373  52.2722369  65.8413932  70.3174828  52.7135533  66.2310090
  69.9993628  51.4675796  65.7544190  69.8169202  52.2187564  65.8859409
  63.0301678  43.3765067  64.0651409  62.7951862  42.5432719  63.9583678
  63.1687318  43.6569733  63.2512610  63.0157340  43.2948570  63.9293764
  65.3291765  35.5450797  66.9635717  64.7096797  34.9543445  66.7945732
  65.2275629  36.1362233  66.3300040  65.2229441  35.5454880  66.8440706
  70.3757953  45.2834344  61.2133793  70.6973794  45.8239552  60.6095101
  71.0230049  44.7131116  61.3456083  70.5184008  45.2793519  61.1440829
  72.4259661  37.2850339  61.2968180  73.1239825  37.4638467  61.7889643
  72.7411993  36.7620679  60.6738569  72.5754998  37.2344111  61.2770190
  65.0560898  39.0903079  69.2079286  64.9319595  39.6765525  69.8429105
  65.7079183  38.5963275  69.5091561  65.1334547  39.1041884  69.3465215
  72.6147596  43.6720784  61.2847971  73.0541232  43.0637885  61.7302744
  72.4652259  43.2928158  60.5133436  72.6569062  43.5259255  61.2367139
  70.0819239  42.2664796  68.4866797  70.7268242  41.7737239  68.1677745
  70.3221016  42.4089583  69.3132875  70.2129824  42.2142238  68.5616330
  72.6205330  45.1119702  68.1373689  72.9028573  44.3171108  67.9160445
  73.3491491  45.5900289  68.1578750  72.7694894  45.0654299  68.1076705
  70.5986524  32.6542736  65.3789455  70.2689854  33.1053879  64.7093153
  69.9231526  32.5758899  65.9262461  70.4496961  32.7093871  65.3612678
  76.2156933  42.0247966  58.2378741  76.1308228  42.8808932  58.3828309
  76.7041316  41.7492290  58.9060900  76.2745830  42.1105287  58.3580822
  77.8062932  28.6428259  63.6239065  77.4916373  29.3331737  64.0559488
  77.2889874  28.5873041  62.9224566  77.6827403  28.7363147  63.5836014
  77.1475366  38.6432760  59.7376476  76.6186837  38.8592393  60.3973782
  77.6700386  39.3368898  59.6577445  77.1463819  38.7775897  59.8232075
  69.0374974  42.5395976  58.5383944  68.4532189  43.0446008  58.9449808
  68.6345069  42.3138363  57.7980536  68.8914278  42.5804225  58.4888969
  64.5919002  48.2550738  65.3407615  64.1086581  48.9801227  65.3167199
  65.4042321  48.5526868  65.4517773  64.6409750  48.4053091  65.3534895
  70.6633156  47.0482918  67.9457430  70.1460098  46.6890333  67.3418738
  71.3607548  46.5245093  67.9563496  70.6898738  46.9180606  67.8587688
  73.4952188  38.7861629  57.0152864  73.7348192  38.9939612  56.2028207
  73.8168029  37.9819137  57.1241809  73.5789346  38.6975730  56.9113417
  68.8042478  30.7155024  60.8612402  69.5588446  31.0833341  60.6229452
  68.6270013  31.0894579  61.6291582  68.8896957  30.8253212  60.9397291
  67.4463200  48.7706914  65.4927895  68.1483779  48.2558903  65.5500652
  67.3660683  49.0981065  66.2974770  67.5386960  48.7421140  65.6200687
  68.4942106  39.0082500  74.6208310  68.6662610  38.8988395  75.4693592
  69.0311464  39.6536906  74.3839503  68.5987110  39.0874502  74.7113407
  67.1599543  33.1225343  57.5590515  66.9775116  33.3397224  56.7331508
  68.0225156  33.2364356  57.6149130  67.2604133  33.1715241  57.4445002
  66.7713975  44.9613266  65.0013503  67.6102874  45.1936198  65.0487265
  66.8025744  44.0917577  64.9320539  66.8995693  44.8670212  64.9978148
  67.3966678  45.3814141  69.3026809  67.9364903  45.2385272  69.9730181
  66.7136624  45.7810891  69.6710835  67.3758832  45.4193812  69.4561230
  72.8399262  30.1251754  60.5939539  73.5685423  29.9467709  60.1477695
  72.9294155  30.9669834  60.8046717  72.9605924  30.2235632  60.5593057
  76.8207563  41.0605141  64.4971833  77.5765078  41.4936656  64.5360742
  76.9269887  40.4109911  65.0706469  76.9477734  41.0282625  64.5869859
  62.8003823  41.6014432  69.4561230  62.5342238  40.7853548  69.6152221
  62.8142387  41.6467587  68.5856746  62.7628545  41.4871336  69.3514712
  66.7061570  36.3999516  56.0712988  65.9919747  36.1137695  56.4835421
  67.1905539  36.7396142  56.7119376  66.6720933  36.4081166  56.2268623
  67.5502429  35.1392810  72.1028238  66.8574226  34.6689789  72.3488969
  68.1662757  34.9131114  72.6769945  67.5386959  35.0359942  72.2237391
  73.8808888  44.9029470  56.4474797  74.2960036  44.5714494  55.7559292
  73.0500818  44.6698372  56.3194933  73.8196897  44.8200726  56.3265644
  63.2097237  42.3873211  66.7372974  63.0272810  42.3620097  65.8845267
  63.9446906  42.8572149  66.7761883  63.2911301  42.4534573  66.6170893
  66.2742988  39.1058214  73.2455083  66.9982961  39.0911244  73.7319978
  66.3759125  39.8153569  72.7477051  66.3961197  39.2082917  73.2433870
  76.3219257  39.3091290  62.3999046  76.4166111  40.0480584  62.8538671
  75.6978100  38.8808765  62.8333611  76.2428287  39.3552610  62.5307194
  63.1768147  39.2666712  66.8872041  63.7541650  39.1303162  67.5264286
  62.4782209  38.8102496  67.1417625  63.1589168  39.1788978  67.0194331
  76.5742278  41.1540029  55.6335998  76.4922441  41.2242216  56.4990985
  77.2121999  41.7169773  55.4419739  76.6562115  41.2479000  55.7325947
  69.9335449  40.9200767  65.1010524  69.6754694  40.0872502  65.0741824
  69.9883932  41.1458380  64.2603025  69.9035227  40.8298539  64.9730661
  75.0136499  33.0229218  65.2014617  74.3092826  32.5338403  65.3598536
  75.0621474  33.0351692  64.3303061  74.9166551  32.9518866  65.0953957
  68.9070161  38.4738530  65.5875419  68.3319753  38.6330698  66.2239380
  68.5305838  37.8373939  65.1243870  68.7672974  38.4036343  65.6129977
  72.5743450  36.9461879  70.4467797  72.1857883  36.5216097  69.7919989
  71.9098148  37.1944029  70.9544824  72.4190378  36.9200600  70.4255665
  58.6526980  38.1178604  63.6019860  58.7387232  37.7410473  64.3833390
  59.2802778  37.7439050  63.1239818  58.7583531  38.0064087  63.6465337
  73.6782388  41.1760484  58.6444604  74.4923027  41.4675376  58.5327376
  73.6141530  40.5220346  58.0702897  73.7885127  41.1225678  58.5433442
  69.5490297  44.6482001  63.7716917  70.1864244  44.4093749  64.3168710
  69.9745368  44.8519160  63.0370077  69.7066463  44.6433011  63.7434074
  64.2402939  46.8870338  67.6551220  64.2807084  47.1585189  66.8271000
  64.7997463  47.4112246  68.0709008  64.3286285  47.0046093  67.5943108
  70.1893112  39.8684291  58.1091806  70.5738264  39.6491998  58.8608351
  69.9404732  40.6947236  58.2392882  70.2095184  39.9582437  58.2392882
  71.9311769  45.1254424  65.4510703  72.0050777  44.9629596  66.3052553
  72.7481275  45.3144613  65.2071184  72.0628127  45.1291166  65.5408728
  65.6917525  45.4712286  62.4805146  64.8655643  45.7174024  62.3539425
  65.7529516  45.3924367  63.3467204  65.5791692  45.4957235  62.5894091
  67.9093549  31.5381228  63.4400586  67.0415974  31.6103827  63.5058196
  68.1968753  32.3403306  63.6288562  67.8233297  31.6675375  63.4775353
  70.4716354  48.0889167  60.1824176  70.7614653  47.6978148  59.4583403
  71.2019835  48.2705872  60.6229451  70.6223238  48.0582981  60.1406983
  71.0611099  42.8906913  71.2677307  70.5622793  43.6022680  71.3462195
  71.8711324  43.2107579  71.2295469  71.1067206  43.0433761  71.2733875
  68.4122270  50.0656549  63.2484326  68.1922565  49.7753904  64.0410993
  68.1916792  49.4071504  62.7202238  68.3469864  49.9256258  63.2873235
  67.3239217  42.1529866  65.5140028  67.0352466  41.5267337  66.0485755
  68.1922565  42.0950153  65.5804708  67.4099469  42.0517410  65.6030982
  78.1117115  37.2964649  65.8322009  77.7681881  36.5754984  66.1829259
  78.2110157  37.0878500  64.9900368  78.0759158  37.1588852  65.7593689
  70.5790226  51.4385939  62.0315018  71.2314284  50.9062381  62.2606044
  69.8815834  51.0854591  62.4182892  70.5720944  51.3075462  62.1227186
  67.5271490  43.7925117  61.4382393  68.2817458  44.1738156  61.6517855
  66.9342103  44.2436260  61.8929089  67.5508204  43.9153944  61.5365271
  68.8469717  44.9633678  66.8122508  68.3250471  45.1033970  67.4974373
  69.2343737  44.2044342  67.0024625  68.8273418  44.8719202  66.9423585
  65.8360901  35.0139487  60.8817463  65.5485697  34.6440757  60.1449410
  66.5231369  35.4834342  60.6201168  65.8949798  35.0286456  60.7332538
  75.0436722  46.7029137  60.7983077  74.8023398  45.9696998  60.3910142
  75.2238055  47.2515994  60.1449410  75.0344346  46.6751528  60.6413300
  70.2736043  41.9937697  62.2103999  70.0778825  42.6012432  61.6164302
  70.4970388  41.3005641  61.7295673  70.2770684  41.9815223  62.0520080
  68.6714573  38.8792435  62.3284867  69.3937225  39.0433593  61.8688673
  68.1922565  39.6002100  62.2224207  68.7078303  39.0090665  62.2450481
  76.6308080  35.2156234  67.7081552  75.7919181  35.2417513  67.4719816
  76.7012448  35.8626969  68.2886899  76.5176474  35.3152360  67.7590669
  66.3222189  41.2850507  71.4339007  66.8343286  41.5634761  70.7847767
  66.0358532  42.0239801  71.8001820  66.3557052  41.4352861  71.3928885
  75.0777358  32.1141611  62.4409168  75.7803711  31.9149359  61.9629127
  74.8121547  31.3417553  62.7478012  75.1423991  31.9704577  62.4154610
  63.4089096  35.7920699  61.7302744  63.5105232  36.5946861  62.0583719
  64.2044982  35.5908035  61.4325824  63.5417001  35.8806598  61.7338099
  69.8405915  33.3776896  71.4940049  69.6489112  33.3932030  72.3439472
  70.6904511  33.5740570  71.4706704  69.9381637  33.4091247  71.6163344
  64.2252828  35.9067877  69.4723865  64.0838320  35.0551818  69.5968373
  64.5093391  35.9496538  68.6486071  64.2460674  35.7867627  69.3691489
  74.3791420  37.7434968  63.6168354  74.1326134  37.6630719  64.4505143
  74.7076543  36.9588436  63.4230881  74.3912664  37.6161233  63.7115877
  78.2739469  44.4518327  67.4055135  78.1353828  45.1499373  67.9103877
  77.4939467  44.2966983  67.0491317  78.1382696  44.5318494  67.4281409
  70.3388447  40.4791686  73.0291337  70.4831823  41.0592894  72.3934447
  70.6864096  40.8567983  73.7341191  70.4115909  40.6212390  73.0390332
  72.5108365  39.6781855  70.8116468  71.7631679  39.8712869  70.4064746
  72.6649890  38.8527074  70.5740590  72.4230792  39.5846966  70.7161874
  72.7510142  33.5732405  71.7011872  73.2082756  34.3056380  71.8284664
  72.8266471  33.1498871  72.4599128  72.8301112  33.6189643  71.8312948
  64.9943133  33.8198225  72.7901316  64.4585322  33.2078583  73.1062083
  65.0560898  34.3946361  73.4434982  64.9238766  33.8145153  72.9336742
  72.5939750  47.3610100  62.0060460  73.3589641  47.0919744  61.6843125
  72.4917840  46.8760110  62.7230523  72.6921245  47.2499664  62.0640288
  70.6292520  35.5634509  68.5453696  69.8388594  35.3825969  68.8671032
  71.0253143  34.7861462  68.5283990  70.5709396  35.4221970  68.5906244
  75.1158410  44.3922284  53.9860410  75.8831396  44.4522409  53.5766261
  74.6689719  43.8202725  53.5016728  75.1631838  44.3158859  53.8538120
  76.0136206  43.1976939  66.2713142  75.3381208  42.9662172  66.7726529
  76.0228582  42.5898122  65.6455247  75.9154711  43.0735865  66.2529294
  73.1430350  38.0394768  73.0277195  73.0789491  38.9004725  72.8997332
  73.2827538  37.7226762  72.2272746  73.1545820  38.1194935  72.8905408
  78.0152941  46.0542072  58.5023320  78.0972778  46.8609058  58.1784771
  78.5002683  46.0738031  59.2264093  78.0990098  46.1762734  58.5610219
  71.8249444  40.7326908  67.1693398  71.4011693  40.9331407  66.4332416
  71.6494299  39.8855756  67.2817698  71.7360324  40.6375689  67.0767088
  67.1131889  41.2278959  62.6021370  67.2696508  41.1625762  63.4577362
  67.4532482  42.0027512  62.3900050  67.1865124  41.3328157  62.6975965
  73.6511033  40.6036843  61.4714734  74.1926579  40.1007224  61.9353354
  73.9657592  40.5502037  60.6604219  73.7775431  40.5216264  61.4198546
  71.8197483  45.9954194  58.7554762  71.8890303  45.1368733  58.8947762
  72.5985938  46.2126075  58.4273786  71.9450333  45.9007058  58.7271919
  74.8000303  35.4973147  71.5237034  75.0142272  34.8584061  70.9700388
  74.1834202  35.9418971  71.0944896  74.7405632  35.4683291  71.3787465
  76.2104971  48.4191896  62.9691255  75.8184762  48.1158611  62.2514121
  76.3658043  49.2560986  62.7796209  76.1758561  48.4975732  62.8347752
  63.6866150  38.4113910  62.9182138  64.0665115  38.8298455  62.2542405
  63.1121515  38.9927365  63.2250981  63.6577475  38.5591768  62.8658879
  76.3744645  44.9841884  62.9097285  76.0159300  45.1556527  63.6861318
  75.8883356  45.4455090  62.3525284  76.2503342  45.0780855  62.9422555
  74.1915031  28.6073083  66.5124377  73.3208589  28.5811804  66.4657686
  74.4455373  28.4350275  65.6950223  74.1008592  28.5783227  66.3844514
  71.1633011  40.6641050  55.4497520  71.4525536  41.4405932  55.7241094
  71.2504810  40.1529781  56.1512019  71.2187267  40.7032968  55.5940018
  71.2164172  30.6179311  67.9697847  70.7002661  29.9259503  68.0949426
  70.6558101  31.2850088  67.9160446  71.0570685  30.6142569  67.9803913
  73.2856405  31.1572271  69.7990700  72.8988159  31.1821303  70.5804230
  72.7989343  30.5913950  69.3465216  73.1568914  31.0768022  69.8478603
  67.3296952  39.9774314  67.5497632  66.4884958  39.8778189  67.7576526
  67.5386960  40.7469795  67.9011953  67.2361644  40.0766358  67.6324947
  64.8072519  37.5993851  65.3782383  64.4129217  37.6736863  64.6032492
  64.2512636  37.9851798  65.9290744  64.6675331  37.6675626  65.3450042
  76.4437466  30.5775145  65.0586262  76.6487059  30.5097453  65.9043259
  76.1163890  31.3833967  64.9907439  76.4252714  30.6861086  65.1745917
  71.1413617  37.9055714  66.7995229  70.8376754  37.3511702  67.4005637
  70.4393037  38.0847924  66.3123264  70.9929827  37.8500496  66.8164935
  70.1979714  35.2156233  61.3639931  70.4739448  34.4975146  60.9517499
  70.7978383  35.8141153  61.1561037  70.3272978  35.1976604  61.2720693
  69.2031968  45.1205434  71.5067327  69.0952323  45.1307496  72.3729385
  69.4127749  45.9460215  71.3172281  69.2182079  45.2446509  71.6071419
  73.6990234  32.8869751  59.6386526  74.1533981  33.0580311  60.3634371
  74.1730280  32.2737861  59.2384302  73.8358554  32.8220636  59.6860288
  67.2205760  42.3718077  68.9689265  66.6293693  43.0127575  68.9392280
  67.9826783  42.7955694  68.9420564  67.2454020  42.5293915  68.9604412
  67.6166383  33.5320074  69.6357282  68.0767864  33.6059004  70.3732406
  67.6622489  34.3301328  69.2857104  67.6916938  33.6614222  69.6930039
  69.2649732  34.1986769  74.2029310  68.8735297  33.5520116  74.6385087
  69.4335595  34.7898205  74.8223565  69.2320643  34.1901037  74.3592016
  76.9795276  47.8227388  66.4021289  76.7814965  48.3118203  65.7077501
  76.3582987  48.0268630  66.9805423  76.8582840  47.9243927  66.3844513
  71.0403254  39.5912285  60.7431534  71.7845299  39.9786561  60.9814483
  71.1863950  38.7469710  60.9072021  71.1713839  39.5242758  60.8025503
  72.9582830  31.3862544  65.7763395  72.1118875  31.5585352  65.6504745
  72.9553962  30.5811888  66.1129223  72.8329980  31.2923573  65.8074522
  74.0281130  35.1637758  66.6425453  73.5541084  34.6379520  67.1530764
  74.3999266  34.6167231  66.0740314  74.0131019  35.0053755  66.6340600
  64.4054160  37.1609265  72.0108999  65.2679773  37.0604974  71.9246328
  64.0745943  36.5803974  71.4494571  64.4839357  37.0600892  71.9154405
  75.9564630  36.0574313  59.7051207  75.4287648  36.1403057  59.0156916
  76.4160338  36.7992184  59.7015851  75.9466480  36.1794975  59.6025902
  67.7655946  35.9851714  68.6719417  67.1409016  35.9970106  68.0645370
  67.4301541  36.4611889  69.3210657  67.6241438  36.0570231  68.6775985
  67.9497695  34.3276833  54.7292102  67.6010499  34.9796558  55.1923651
  67.4694141  34.3133946  54.0015973  67.8267939  34.4219886  54.6903193
  64.4781622  44.0452174  70.1123181  63.9481546  43.3544613  70.1618156
  64.7506715  44.0362360  69.2835890  64.4406344  43.9419306  69.9970597
  75.5101712  44.6277877  58.8360864  76.2335911  45.0935990  58.6925437
  75.0702303  44.6951486  58.0858461  75.5517405  44.7061713  58.7045645
  74.6787867  41.4875419  70.0861553  74.0644861  40.9433469  70.3810188
  75.1955152  40.9739655  69.6067369  74.6643530  41.3311828  70.0585781
  73.9184165  42.5579689  67.8205851  73.4911773  41.9329407  67.3871287
  73.9109109  42.2754611  68.6464859  73.8543306  42.4232469  67.8785679
  67.0346692  37.5944862  70.8894285  67.1940178  36.8388186  71.2946007
  66.8539585  38.1435801  71.5435023  67.0312051  37.5638676  71.0456991
  72.2469874  33.4348443  68.0348385  72.2712361  32.9008556  67.3461165
  72.4981348  32.9265752  68.6973976  72.2879793  33.2809347  68.0313030
  59.7577464  40.7179938  67.4691529  59.6520913  40.6726783  66.6043614
  59.0077684  41.0633719  67.7505814  59.6313067  40.7620847  67.3828859
  68.5271196  32.1619262  67.4154130  68.5669568  32.6628468  68.1288837
  67.7020861  32.2529655  67.1460053  68.4110722  32.2501078  67.4804668
  69.9485560  38.6779771  69.7128029  69.1177490  38.8453589  69.5063277
  69.8937077  38.3015722  70.4976914  69.8174975  38.6469503  69.7976557
  68.3221604  36.9535363  60.2418146  68.4624565  37.4507827  60.9446788
  68.8204137  36.2521657  60.3832360  68.4162685  36.9237342  60.3669725
  68.3521826  37.8202474  57.5710723  68.9866906  38.4162899  57.5060185
  68.4347437  37.5205932  58.3856593  68.4578377  37.8643382  57.6813810
  69.9300809  33.7516449  57.5456165  70.2516650  33.2719532  56.8915428
  70.1927753  34.5616095  57.3546977  70.0166834  33.8006347  57.4211657
  75.3259964  33.1388643  69.9079644  75.7515035  32.6861170  69.2963171
  74.7116957  32.5848714  70.1844432  75.2988609  32.9902620  69.8584670
  64.8574814  40.0170315  60.8400269  65.3667043  40.6134822  61.2211575
  65.3309086  39.7496288  60.1576689  65.0018190  40.0656130  60.7954792
  75.7705562  48.6898581  58.9958925  75.0534872  48.5159444  58.5306162
  76.4212300  48.4551154  58.4634411  75.7607413  48.6294374  58.8488143
  73.7654187  29.6103743  63.3170221  73.1222505  29.4601390  63.8855360
  73.4253594  29.3646088  62.5519326  73.6199264  29.5515866  63.2873236
  72.4040267  49.7059882  67.9711988  72.1805921  48.9478711  68.3396015
  71.9150110  49.7357903  67.2492428  72.2983716  49.5982107  67.9188729
  67.2165346  36.6526573  63.7073450  66.4977335  37.0690706  63.9746313
  67.5877708  37.2180812  63.1565088  67.1657277  36.7975855  63.6656257
  76.5164927  37.2854422  69.5975445  76.4962854  37.1037717  70.4510224
  76.5644127  38.1566441  69.5735029  76.5199568  37.3870960  69.7198740
  71.0518724  49.9260340  65.4249073  70.6379123  49.2634470  65.0352914
  71.7366098  50.0738199  64.9044767  71.0917096  49.8500998  65.2905570
  74.4184018  49.0850425  66.1772689  74.0200301  49.1952696  65.4093510
  73.8035238  49.2932492  66.7599249  74.2682907  49.1323993  66.1503989
  72.9911920  35.6924573  59.0446829  72.3976759  36.0141570  58.4931396
  73.0287198  34.8465669  58.8367935  72.9086309  35.6148901  58.9329600
  75.8669737  35.6504078  62.4748579  75.6383430  35.6736779  61.6326938
  76.1267813  34.8261545  62.5943590  75.8715925  35.5320158  62.3673777
  70.1488965  37.5038551  72.0773680  69.6367868  36.8959734  72.4358711
  69.9768461  38.2195143  72.5447655  70.0478602  37.5201850  72.1989903
  64.9954680  35.9476126  74.7276041  64.8257270  36.6077501  74.1824248
  64.5520630  36.1582687  75.4488530  64.9054013  36.0762108  74.7537671
  68.9214499  34.1880624  63.7702775  69.3971865  34.5497704  63.1352956
  68.4203099  34.8437092  64.0502918  68.9179858  34.3374813  63.7179516
  61.8956744  38.8522992  69.9864531  61.3483464  38.1823637  70.1045400
  62.6849122  38.4852840  70.0507998  61.9308928  38.6987978  70.0133232
  70.9641152  36.3321824  57.1376159  71.3440117  36.3501453  56.3527274
  70.2233748  36.7775813  57.0167006  70.9109990  36.4003598  57.0039727
  78.5926443  34.6404015  62.7251738  78.5920669  34.4852672  63.5836014
  78.3882623  35.4867002  62.6693123  78.5626221  34.7424636  62.8439677
  60.6543714  38.0643799  67.1410554  60.4765475  37.6120408  67.8665470
  60.3662736  38.8669961  67.3249032  60.5856667  38.1166357  67.2754057
  76.3167295  39.3201517  66.3787945  76.8120960  38.6024512  66.3391965
  75.5067071  39.0172315  66.2642432  76.2711188  39.1699163  66.3561670
  71.7625906  43.1699330  58.5284949  70.9537229  42.8466004  58.4818258
  72.2700815  42.4632552  58.4613198  71.7175573  43.0180646  58.5115243
  62.3916184  40.5971523  64.2532313  61.5261703  40.5857214  64.1415085
  62.4915000  40.4101746  65.1003453  62.2790351  40.5677584  64.3621258
  78.3819114  42.0705204  69.0665073  78.8074185  41.5479626  68.5135498
  78.0176034  42.6686042  68.5453696  78.3905716  42.0815431  68.9074083
  68.0173194  50.3669422  67.8262419  68.3319753  51.1805810  67.8340201
  68.4266607  49.9819641  68.4944578  68.1241292  50.4298124  67.9266510
  74.9697713  45.7839469  65.3966231  75.4408891  46.4979731  65.5656216
  75.3057892  45.1838219  65.9326100  75.0892828  45.8010933  65.4998607
  70.9560323  32.5583352  59.8203791  71.7776017  32.7281665  59.5785485
  70.4929974  32.7130613  59.0970088  71.0091485  32.6065085  59.6775435
  69.5455655  30.5526114  70.6002219  70.0900068  30.2117241  71.1906561
  69.5992591  31.4111576  70.7423504  69.6344774  30.6281374  70.7084093
  65.3586214  44.3142530  67.4741027  65.9631071  44.2738364  66.8454848
  65.1513526  45.1613682  67.5045083  65.4175111  44.4330533  67.3857144
  60.5937496  43.2977148  67.3439950  60.4961774  42.4873419  67.6530007
  61.3766366  43.2768941  66.9586218  60.6953632  43.1744238  67.3326813
  77.6794154  51.9184824  56.0712988  76.9652331  51.6323003  56.4835421
  78.1638122  52.2581450  56.7119376  77.6453517  51.9266474  56.2268623
  69.6259564  53.6363912  63.6019860  69.7119816  53.2595781  64.3833390
  70.2535361  53.2624358  63.1239818  69.7316115  53.5249395  63.6465337
  76.8093485  50.5324795  60.8817463  76.5218280  50.1626065  60.1449410
  77.4963953  51.0019650  60.6201168  76.8682382  50.5471764  60.7332538
  74.3821679  51.3106007  61.7302744  74.4837816  52.1132169  62.0583719
  75.1777566  51.1093343  61.4325824  74.5149585  51.3991906  61.7338099
  74.6598734  53.9299218  62.9182138  75.0397699  54.3483763  62.2542405
  74.0854099  54.5112673  63.2250981  74.6310059  54.0777076  62.8658879
  75.8307398  55.5355623  60.8400269  76.3399627  56.1320130  61.2211575
  76.3041670  55.2681596  60.1576689  75.9750773  55.5841438  60.7954792
  78.1897929  52.1711881  63.7073450  77.4709918  52.5876014  63.9746313
  78.5610292  52.7366120  63.1565088  78.1389861  52.3161163  63.6656257
  56.9770118   8.7619211  49.1076350  56.2253017   8.3834750  48.8792395
  57.4256129   8.7937645  48.3595160  56.9319784   8.7104818  48.9633852
  62.4295077   9.1844581  44.5361897  62.0946446   9.8621502  44.1006119
  62.9421948   8.7949892  43.9478769  62.4560659   9.2269159  44.3848688
  61.9699369  11.1358850  50.4773008  62.3538748  11.7045748  49.9377784
  61.9058510  10.4108360  49.9978825  62.0172796  11.1134313  50.3266871
  58.5554874   8.7737604  51.3739122  58.6565237   7.9637957  51.6836250
  57.9596619   8.6794550  50.7438801  58.4827412   8.6402632  51.3265361
  58.3955613  13.6915193  52.7753978  59.0393069  14.1328357  53.1650137
  58.7211869  12.8868619  52.6884237  58.5387442  13.6380387  52.8199456
  51.7519918   4.7957890  50.9991456  51.5170102   3.9625542  50.8923725
  51.8905559   5.0762556  50.1852657  51.7375580   4.7141393  50.8633811
  59.0976193   6.7027168  48.1473840  59.4192034   7.2432375  47.5435148
  59.7448290   6.1323939  48.2796130  59.2402248   6.6986343  48.0780875
  53.3137243   9.6743561  52.2747662  52.8304821  10.3994050  52.2507246
  54.1260561   9.9719691  52.3857820  53.3627990   9.8245915  52.2874941
  59.3851397   8.4675742  54.8797477  58.8678338   8.1083157  54.2758785
  60.0825788   7.9437916  54.8903543  59.4116978   8.3373430  54.7927735
  63.0414989   8.9170556  60.8413650  63.1298335   8.7296696  61.6891860
  63.4704701   8.2707985  60.4418496  63.1177091   8.7933563  60.9085401
  60.6085448   8.2001716  59.8231312  60.0456283   7.7874325  60.3470973
  61.3706472   8.1254621  60.2424455  60.6379897   8.1279116  59.9624312
  56.1681440  10.1899737  52.4267942  56.8702019   9.6751726  52.4840699
  56.0878923  10.5173888  53.2314817  56.2605200  10.1613963  52.5540734
  55.4932215   6.3806089  51.9353550  56.3321115   6.6129022  51.9827312
  55.5243985   5.5110400  51.8660585  55.6213933   6.2863035  51.9318195
  56.1184918   6.8006964  56.2366856  56.6583143   6.6578095  56.9070228
  55.4354865   7.2003715  56.6050882  56.0977072   6.8386635  56.3901277
  63.1535048   8.3479575  63.5057433  63.9375465   8.4610422  63.8713175
  62.9531643   7.5220712  63.7016119  63.2401073   8.2426294  63.5891819
  63.3105441  10.2589677  57.1523889  62.5120687  10.0189177  57.4097757
  63.7591453  10.3104070  57.8990936  63.2580053  10.2312068  57.3008813
  51.9315477   3.8066034  53.6713021  51.7491050   3.7812920  52.8185313
  52.6665146   4.2764972  53.7101930  52.0129541   3.8727396  53.5510940
  58.2708537   6.0674824  50.7056963  58.9082484   5.8286572  51.2508757
  58.6963609   6.2711983  49.9710124  58.4284703   6.0625834  50.6774121
  52.9621179   8.3063161  54.5891267  53.0025325   8.5778012  53.7611047
  53.5215703   8.8305069  55.0049055  53.0504525   8.4238916  54.5283155
  60.6530009   6.5447247  52.3850750  60.7269017   6.3822419  53.2392600
  61.4699515   6.7337436  52.1411231  60.7846368   6.5483989  52.4748775
  54.4135766   6.8905110  49.4145193  53.5873883   7.1366847  49.2879472
  54.4747757   6.8117191  50.2807251  54.3009933   6.9150059  49.5234138
  59.1934595   9.5081990  47.1164223  59.4832893   9.1170971  46.3923450
  59.9238075   9.6898695  47.5569498  59.3441479   9.4775804  47.0747030
  57.1340510  11.4849372  50.1824373  56.9140806  11.1946727  50.9751040
  56.9135032  10.8264327  49.6542285  57.0688104  11.3449081  50.2213281
  59.3008466  12.8578762  48.9655065  59.9532524  12.3255205  49.1946091
  58.6034075  12.5047415  49.3522939  59.2939184  12.7268285  49.0567233
  56.2489731   5.2117940  48.3722439  57.0035699   5.5930979  48.5857902
  55.6560343   5.6629084  48.8269136  56.2726444   5.3346767  48.4705318
  57.5687957   6.3826501  53.7462555  57.0468711   6.5226793  54.4314419
  57.9561978   5.6237166  53.9364672  57.5491658   6.2912025  53.8763631
  63.7654962   8.1221961  47.7323124  63.5241638   7.3889821  47.3250189
  63.9456295   8.6708818  47.0789457  63.7562586   8.0944352  47.5753347
  58.1334443  10.0887281  56.8292410  58.2824006   9.5290197  56.1765815
  58.9134445  10.1679283  57.2124929  58.2708536  10.0172847  56.7889359
  60.6587743  10.2601924  58.1076901  60.5831414   9.5910735  58.6627689
  60.5877603  10.9619712  58.6217567  60.6368350  10.2646832  58.2653749
  61.3157990   8.7802923  48.9400507  62.0807881   8.5112567  48.6183171
  61.2136080   8.2952933  49.6570570  61.4139486   8.6692488  48.9980335
  60.0479378  13.6670244  56.5654902  60.5375308  12.9681033  56.3830567
  59.4763610  13.3694114  57.1530959  60.0363908  13.5196468  56.6255943
  60.5415724   7.4147018  45.6894808  60.6108544   6.5561556  45.8287809
  61.3204179   7.6318898  45.3613833  60.6668574   7.3199882  45.6611966
  64.9323211   9.8384719  49.9031302  64.5403003   9.5351434  49.1854168
  65.0876283  10.6753809  49.7136256  64.8976801   9.9168556  49.7687799
  57.9250208   6.5398258  58.4407374  57.8170563   6.5500320  59.3069432
  58.1345990   7.3653038  58.2512328  57.9400319   6.6639332  58.5411466
  65.7013516   9.2420212  53.3361336  65.5033205   9.7311026  52.6417547
  65.0801227   9.4461453  53.9145469  65.5801081   9.3436750  53.3184559
  53.1999862   5.4644997  57.0463228  52.6699787   4.7737436  57.0958203
  53.4724956   5.4555183  56.2175937  53.1624585   5.3612129  56.9310644
  48.4795704   2.1372762  54.4031576  48.3739154   2.0919606  53.5383660
  47.7295924   2.4826542  54.6845861  48.3531307   2.1813670  54.3168906
  61.8816022   6.1928147  57.9995028  61.3741113   6.7463994  58.4435659
  61.5842668   6.2536437  57.1813803  61.7620907   6.2834458  57.9443485
  64.4923802  10.1091405  45.9298972  63.7753112   9.9352267  45.4646209
  65.1430540   9.8743977  45.3974458  64.4825653  10.0487197  45.7828190
  61.1258507  11.1252705  54.9052035  60.9024162  10.3671535  55.2736061
  60.6368351  11.1550726  54.1832475  61.0201956  11.0174930  54.8528776
  59.7736964  11.3453163  52.3589120  59.3597363  10.6827294  51.9692961
  60.4584339  11.4931022  51.8384814  59.8135336  11.2693822  52.2245617
  63.1402258  10.5043249  53.1112736  62.7418542  10.6145519  52.3433557
  62.5253478  10.7125315  53.6939296  62.9901148  10.5516817  53.0844036
  56.7391434  11.7862245  54.7602466  57.0537993  12.5998634  54.7680247
  57.1484847  11.4012464  55.4284625  56.8459532  11.8490947  54.8606557
  54.0804454   5.7335354  54.4081074  54.6849311   5.6931188  53.7794895
  53.8731767   6.5806506  54.4385130  54.1393351   5.8523356  54.3197191
  63.8948226   8.0001299  55.6243311  64.7146600   7.8564265  55.8859607
  63.6142304   8.6247498  56.1659749  63.9744970   8.0711651  55.7431251
  49.3155736   4.7169971  54.2779997  49.2180014   3.9066243  54.5870054
  50.0984606   4.6961764  53.8926265  49.4171873   4.5937061  54.2666860
  73.5661561  14.7441801  53.3439118  72.7099457  14.9050300  53.3948235
  73.6129215  13.8733865  53.3644179  73.4460673  14.6392603  53.3545184
  67.9502701  24.2804519  49.1076350  67.1985601  23.9020058  48.8792395
  68.3988713  24.3122953  48.3595160  67.9052368  24.2290126  48.9633852
  73.4027661  24.7029889  44.5361897  73.0679029  25.3806810  44.1006119
  73.9154531  24.3135200  43.9478769  73.4293242  24.7454467  44.3848688
  72.9431952  26.6544157  50.4773008  73.3271332  27.2231056  49.9377784
  72.8791094  25.9293668  49.9978825  72.9905380  26.6319621  50.3266871
  76.4113382  16.8033845  55.9870770  76.9569342  17.4818932  56.0464740
  76.3530259  16.6621306  55.1272351  76.4829297  16.8825847  55.8682830
  69.5287457  24.2922911  51.3739122  69.6297820  23.4823265  51.6836250
  68.9329203  24.1979858  50.7438801  69.4559996  24.1587940  51.3265361
  69.3688197  29.2100501  52.7753978  70.0125652  29.6513665  53.1650137
  69.6944452  28.4053927  52.6884237  69.5120026  29.1565695  52.8199456
  62.7252502  20.3143198  50.9991456  62.4902686  19.4810850  50.8923725
  62.8638142  20.5947864  50.1852657  62.7108164  20.2326701  50.8633811
  65.0242589  12.4828929  53.8975764  64.4047621  11.8921576  53.7285778
  64.9226453  13.0740364  53.2640087  64.9180265  12.4833011  53.7780753
  70.0708777  22.2212475  48.1473840  70.3924618  22.7617683  47.5435148
  70.7180873  21.6509247  48.2796130  70.2134832  22.2171651  48.0780875
  72.1210485  14.2228470  48.2308227  72.8190649  14.4016598  48.7229690
  72.4362817  13.6998810  47.6078616  72.2705822  14.1722243  48.2110237
  64.7511722  16.0281210  56.1419333  64.6270419  16.6143656  56.7769151
  65.4030007  15.5341406  56.4431608  64.8285371  16.0420015  56.2805262
  72.3098420  20.6098915  48.2188018  72.7492056  20.0016016  48.6642791
  72.1603083  20.2306289  47.4473483  72.3519886  20.4637387  48.1707186
  69.7770063  19.2042927  55.4206844  70.4219066  18.7115370  55.1017792
  70.0171840  19.3467714  56.2472922  69.9080648  19.1520369  55.4956377
  72.3156154  22.0497833  55.0713736  72.5979397  21.2549239  54.8500492
  73.0442315  22.5278421  55.0918797  72.4645718  22.0032430  55.0416751
  70.2937348   9.5920867  52.3129501  69.9640678  10.0432011  51.6433200
  69.6182350   9.5137030  52.8602508  70.1447785   9.6472002  52.2952725
  75.9107757  18.9626097  45.1718787  75.8259052  19.8187063  45.3168356
  76.3992140  18.6870421  45.8400947  75.9696654  19.0483418  45.2920869
  76.8426190  15.5810891  46.6716523  76.3137661  15.7970524  47.3313829
  77.3651210  16.2747029  46.5917492  76.8414643  15.7154028  46.7572122
  68.7325798  19.4774108  45.4723991  68.1483013  19.9824139  45.8789854
  68.3295893  19.2516495  44.7320583  68.5865101  19.5182356  45.4229016
  64.2869826  25.1928869  52.2747662  63.8037405  25.9179358  52.2507246
  65.0993145  25.4904999  52.3857820  64.3360574  25.3431222  52.2874941
  70.3583980  23.9861049  54.8797477  69.8410922  23.6268464  54.2758785
  71.0558372  23.4623224  54.8903543  70.3849561  23.8558737  54.7927735
  74.0147572  24.4355864  60.8413650  74.1030918  24.2482004  61.6891860
  74.4437285  23.7893293  60.4418496  74.0909675  24.3118871  60.9085401
  71.5818032  23.7187024  59.8231312  71.0188867  23.3059633  60.3470973
  72.3439056  23.6439929  60.2424455  71.6112481  23.6464424  59.9624312
  73.1903012  15.7239760  43.9492911  73.4299016  15.9317743  43.1368254
  73.5118853  14.9197268  44.0581856  73.2740170  15.6353861  43.8453464
  67.1414024  25.7085045  52.4267942  67.8434603  25.1937034  52.4840699
  67.0611507  26.0359196  53.2314817  67.2337784  25.6799271  52.5540734
  68.1892930  15.9460632  61.5548357  68.3613434  15.8366526  62.4033638
  68.7262288  16.5915037  61.3179549  68.2937934  16.0252633  61.6453454
  66.8550367  10.0603474  44.4930562  66.6725940  10.2775355  43.6671555
  67.7175980  10.1742487  44.5489177  66.9554956  10.1093372  44.3785049
  66.4664799  21.8991397  51.9353550  67.3053698  22.1314329  51.9827312
  66.4976568  21.0295708  51.8660585  66.5946517  21.8048343  51.9318195
  67.0917502  22.3192272  56.2366856  67.6315727  22.1763403  56.9070228
  66.4087448  22.7189023  56.6050882  67.0709656  22.3571943  56.3901277
  76.5158387  17.9983273  51.4311880  77.2715902  18.4314787  51.4700789
  76.6220711  17.3488042  52.0046516  76.6428557  17.9660756  51.5209905
  62.4954647  18.5392563  56.3901277  62.2293062  17.7231679  56.5492267
  62.5093211  18.5845718  55.5196793  62.4579369  18.4249467  56.2854759
  66.4012394  13.3377647  43.0053035  65.6870571  13.0515827  43.4175468
  66.8856363  13.6774273  43.6459423  66.3671757  13.3459297  43.1608670
  67.2453253  12.0770941  59.0368285  66.5525050  11.6067921  59.2829016
  67.8613581  11.8509245  59.6109992  67.2337783  11.9738073  59.1577437
  74.2838025  25.7774985  57.1523889  73.4853271  25.5374485  57.4097757
  74.7324036  25.8289378  57.8990936  74.2312636  25.7497376  57.3008813
  73.5759712  21.8407601  43.3814843  73.9910860  21.5092625  42.6899339
  72.7451642  21.6076503  43.2534980  73.5147721  21.7578857  43.2605691
  62.9048061  19.3251342  53.6713021  62.7223634  19.2998228  52.8185313
  63.6397730  19.7950280  53.7101930  62.9862125  19.3912704  53.5510940
  65.9693812  16.0436345  60.1795130  66.6933785  16.0289376  60.6660025
  66.0709949  16.7531700  59.6817098  66.0912021  16.1461048  60.1773917
  76.0170081  16.2469421  49.3339093  76.1116935  16.9858715  49.7878718
  75.3928924  15.8186896  49.7673657  75.9379111  16.2930741  49.4647240
  74.2722555  19.4255633  59.9829374  74.8461416  18.7882878  60.1377938
  74.1937358  19.4259716  59.1139031  74.3455789  19.3320745  59.8775785
  62.8718971  16.2044843  53.8212088  63.4492474  16.0681294  54.4604333
  62.1733033  15.7480627  54.0757672  62.8539992  16.1167109  53.9534378
  76.2693102  18.0918160  42.5676045  76.1873265  18.1620348  43.4331032
  76.9072823  18.6547904  42.3759785  76.3512939  18.1857132  42.6665994
  69.6286273  17.8578898  52.0350571  69.3705517  17.0250633  52.0081871
  69.6834756  18.0836511  51.1943071  69.5986051  17.7676670  51.9070708
  68.6020985  15.4116661  52.5215466  68.0270577  15.5708829  53.1579427
  68.2256662  14.7752070  52.0583916  68.4623798  15.3414474  52.5470024
  72.2694274  13.8840010  57.3807844  71.8808707  13.4594228  56.7260035
  71.6048972  14.1322160  57.8884871  72.1141202  13.8578731  57.3595712
  58.3477804  15.0556736  50.5359906  58.4338056  14.6788604  51.3173436
  58.9753602  14.6817181  50.0579865  58.4534355  14.9442218  50.5805384
  73.3733212  18.1138615  45.5784651  74.1873851  18.4053508  45.4667423
  73.3092354  17.4598477  45.0042944  73.4835951  18.0603810  45.4773489
  69.2441121  21.5860132  50.7056963  69.8815067  21.3471880  51.2508757
  69.6696192  21.7897291  49.9710124  69.4017287  21.5811142  50.6774121
  63.9353763  23.8248469  54.5891267  63.9757908  24.0963320  53.7611047
  64.4948287  24.3490377  55.0049055  64.0237109  23.9424224  54.5283155
  69.8843936  16.8062422  45.0431853  70.2689088  16.5870129  45.7948398
  69.6355556  17.6325367  45.1732929  69.9046008  16.8960568  45.1732929
  71.6262592  22.0632555  52.3850750  71.7001601  21.9007727  53.2392600
  72.4432099  22.2522744  52.1411231  71.7578951  22.0669297  52.4748775
  65.3868349  22.4090418  49.4145193  64.5606467  22.6552155  49.2879472
  65.4480340  22.3302499  50.2807251  65.2742516  22.4335367  49.5234138
  67.6044373   8.4759359  50.3740633  66.7366798   8.5481958  50.4398242
  67.8919577   9.2781438  50.5628608  67.5184121   8.6053506  50.4115400
  70.1667178  25.0267298  47.1164223  70.4565477  24.6356279  46.3923450
  70.8970659  25.2084003  47.5569498  70.3174062  24.9961112  47.0747030
  70.7561923  19.8285044  58.2017353  70.2573617  20.5400812  58.2802242
  71.5662148  20.1485710  58.1635516  70.8018030  19.9811892  58.2073922
  68.1073094  27.0034680  50.1824373  67.8873389  26.7132035  50.9751040
  67.8867616  26.3449635  49.6542285  68.0420688  26.8634389  50.2213281
  67.0190041  19.0907997  52.4480074  66.7303290  18.4645468  52.9825802
  67.8873389  19.0328284  52.5144755  67.1050293  18.9895541  52.5371029
  77.8067939  14.2342780  52.7662056  77.4632705  13.5133115  53.1169306
  77.9060981  14.0256631  51.9240415  77.7709982  14.0966983  52.6933736
  70.2741049  28.3764070  48.9655065  70.9265108  27.8440513  49.1946091
  69.5766658  28.0232723  49.3522939  70.2671767  28.2453593  49.0567233
  67.2222314  20.7303248  48.3722439  67.9768282  21.1116287  48.5857902
  66.6292927  21.1814392  48.8269136  67.2459028  20.8532075  48.4705318
  78.2680968  20.6968484  48.3086044  78.8339000  21.3561694  48.2244587
  77.6208871  21.0418182  48.7802447  78.2559724  20.8450426  48.3658801
  68.5420541  21.9011809  53.7462555  68.0201294  22.0412101  54.4314419
  68.9294561  21.1422474  53.9364672  68.5224242  21.8097333  53.8763631
  65.5311725  11.9517618  47.8157509  65.2436521  11.5818888  47.0789457
  66.2182193  12.4212473  47.5541214  65.5900622  11.9664587  47.6672585
  74.7387546  23.6407268  47.7323124  74.4974222  22.9075129  47.3250189
  74.9188879  24.1894125  47.0789457  74.7295170  23.6129660  47.5753347
  69.9686867  18.9315828  49.1444046  69.7729649  19.5390563  48.5504349
  70.1921212  18.2383772  48.6635720  69.9721508  18.9193354  48.9860127
  68.3665397  15.8170566  49.2624914  69.0888048  15.9811724  48.8028720
  67.8873389  16.5380231  49.1564254  68.4029127  15.9468796  49.1790528
  76.3258904  12.1534365  54.6421599  75.4870005  12.1795644  54.4059862
  76.3963271  12.8005100  55.2226946  76.2127298  12.2530491  54.6930716
  66.0173013  18.2228639  58.3679054  66.5294110  18.5012892  57.7187814
  65.7309356  18.9617933  58.7341867  66.0507876  18.3730992  58.3268932
  63.1039920  12.7298830  48.6642791  63.2056056  13.5324992  48.9923766
  63.8995806  12.5286166  48.3665871  63.2367825  12.8184729  48.6678146
  69.5356739  10.3155027  58.4280096  69.3439936  10.3310162  59.2779519
  70.3855335  10.5118701  58.4046751  69.6332461  10.3469378  58.5503390
  63.9203652  12.8446009  56.4063912  63.7789143  11.9929949  56.5308420
  64.2044215  12.8874669  55.5826118  63.9411498  12.7245759  56.3031536
  74.0742244  14.6813099  50.5508400  73.8276958  14.6008850  51.3845189
  74.4027367  13.8966567  50.3570928  74.0863488  14.5539364  50.6455924
  77.9690293  21.3896458  54.3395182  77.8304652  22.0877504  54.8443924
  77.1890291  21.2345115  53.9831363  77.8333520  21.4696625  54.3621456
  70.0339271  17.4169817  59.9631383  70.1782647  17.9971026  59.3274493
  70.3814920  17.7946114  60.6681238  70.1066733  17.5590521  59.9730378
  72.2059189  16.6159986  57.7456515  71.4582503  16.8091000  57.3404793
  72.3600714  15.7905205  57.5080636  72.1181616  16.5225097  57.6501921
  69.1067026  25.6072589  56.8292410  69.2556590  25.0475505  56.1765815
  69.8867028  25.6864591  57.2124929  69.2441120  25.5358155  56.7889359
  71.6320327  25.7787232  58.1076901  71.5563998  25.1096043  58.6627689
  71.5610186  26.4805020  58.6217567  71.6100934  25.7832139  58.2653749
  72.4460966  10.5110537  58.6351919  72.9033580  11.2434511  58.7624711
  72.5217294  10.0877002  59.3939175  72.5251936  10.5567775  58.7652995
  64.6893957  10.7576356  59.7241363  64.1536146  10.1456714  60.0402130
  64.7511722  11.3324492  60.3775029  64.6189590  10.7523284  59.8676789
  72.2890574  24.2988231  48.9400507  73.0540465  24.0297875  48.6183171
  72.1868664  23.8138241  49.6570570  72.3872069  24.1877796  48.9980335
  70.3243344  12.5012640  55.4793743  69.5339418  12.3204101  55.8011079
  70.7203966  11.7239593  55.4624037  70.2660220  12.3600101  55.5246291
  74.8109234  21.3300415  40.9200456  75.5782220  21.3900540  40.5106308
  74.3640543  20.7580856  40.4356775  74.8582662  21.2536990  40.7878167
  75.7087030  20.1355071  53.2053189  75.0332032  19.9040303  53.7066576
  75.7179406  19.5276254  52.5795294  75.6105534  20.0113996  53.1869341
  72.8381174  14.9772900  59.9617242  72.7740315  15.8382856  59.8337378
  72.9778362  14.6604893  59.1612793  72.8496644  15.0573066  59.8245455
  77.7103764  22.9920203  45.4363367  77.7923602  23.7987189  45.1124818
  78.1953507  23.0116162  46.1604140  77.7940922  23.1140865  45.4950265
  71.5200268  17.6705039  54.1033445  71.0962517  17.8709538  53.3672463
  71.3445123  16.8233887  54.2157744  71.4311148  17.5753820  54.0107135
  71.0211961  29.1855552  56.5654902  71.5107892  28.4866341  56.3830567
  70.4496194  28.8879422  57.1530959  71.0096491  29.0381776  56.6255943
  66.8082713  18.1657090  49.5361417  66.9647332  18.1003893  50.3917409
  67.1483306  18.9405643  49.3240097  66.8815948  18.2706288  49.6316011
  73.3461857  17.5414974  48.4054780  73.8877403  17.0385355  48.8693401
  73.6608416  17.4880169  47.5944266  73.4726254  17.4594395  48.3538592
  71.5148307  22.9332325  45.6894808  71.5841127  22.0746864  45.8287809
  72.2936762  23.1504206  45.3613833  71.6401157  22.8385189  45.6611966
  74.4951127  12.4351278  58.4577081  74.7093096  11.7962193  57.9040435
  73.8785026  12.8797102  58.0284943  74.4356456  12.4061422  58.3127512
  75.9055795  25.3570027  49.9031302  75.5135586  25.0536742  49.1854168
  76.0608867  26.1939117  49.7136256  75.8709385  25.4353863  49.7687799
  63.3816974  15.3492041  49.8522184  63.7615939  15.7676586  49.1882452
  62.8072339  15.9305497  50.1591028  63.3528299  15.4969900  49.7998925
  76.0695469  21.9220016  49.8437332  75.7110124  22.0934658  50.6201365
  75.5834180  22.3833221  49.2865331  75.9454166  22.0158987  49.8762601
  70.8583835  17.6019181  42.3837567  71.1476360  18.3784063  42.6581141
  70.9455634  17.0907912  43.0852066  70.9138091  17.6411099  42.5280065
  77.2300209  22.8123912  60.7904533  77.8679929  22.3184107  60.4566989
  76.5874300  22.7401312  60.2056760  77.2294435  22.7282920  60.6546888
  77.2854465  23.5043720  57.4309890  78.0746844  23.1532785  57.5511972
  77.4598063  24.3180108  57.1686524  77.4274747  23.5729577  57.4097758
  67.0247776  16.9152446  54.4837679  66.1835782  16.8156320  54.6916573
  67.2337784  17.6847926  54.8351999  66.9312468  17.0144489  54.5664994
  64.5023343  14.5371982  52.3122429  64.1080040  14.6114994  51.5372539
  63.9463460  14.9229929  52.8630791  64.3626155  14.6053757  52.2790089
  70.8364441  14.8433845  53.7335276  70.5327578  14.2889833  54.3345684
  70.1343861  15.0226055  53.2463311  70.6880650  14.7878627  53.7504982
  69.8930538  12.1534365  48.2979978  70.1690272  11.4353277  47.8857546
  70.4929207  12.7519284  48.0901084  70.0223802  12.1354735  48.2060739
  68.8982792  22.0583565  58.4407374  68.7903147  22.0685628  59.3069432
  69.1078573  22.8838346  58.2512328  68.9132903  22.1824640  58.5411466
  66.9156584  19.3096208  55.9029312  66.3244517  19.9505706  55.8732327
  67.6777607  19.7333825  55.8760611  66.9404844  19.4672046  55.8944459
  67.3117206  10.4698206  56.5697329  67.7718688  10.5437135  57.3072453
  67.3573313  11.2679460  56.2197151  67.3867762  10.5992353  56.6270086
  68.9600556  11.1364900  61.1369356  68.5686121  10.4898248  61.5725134
  69.1286419  11.7276336  61.7563612  68.9271467  11.1279168  61.2932062
  76.6746100  24.7605519  53.3361336  76.4765789  25.2496334  52.6417547
  76.0533811  24.9646761  53.9145469  76.5533664  24.8622058  53.3184559
  70.7354078  16.5290416  47.6771580  71.4796123  16.9164693  47.9154530
  70.8814774  15.6847842  47.8412068  70.8664663  16.4620889  47.7365550
  73.7231954  12.1015890  53.5765500  73.2491908  11.5757652  54.0870811
  74.0950090  11.5545362  53.0080361  73.7081843  11.9431886  53.5680647
  64.1004984  14.0987396  58.9449045  64.9630597  13.9983106  58.8586375
  63.7696767  13.5182106  58.3834618  64.1790181  13.9979023  58.8494451
  75.6515454  12.9952444  46.6391254  75.1238472  13.0781188  45.9496962
  76.1111162  13.7370316  46.6355898  75.6417304  13.1173107  46.5365949
  67.4606770  12.9229845  55.6059464  66.8359840  12.9348237  54.9985416
  67.1252365  13.3990020  56.2550704  67.3192262  12.9948362  55.6116032
  67.6448519  11.2654964  41.6632149  67.2961323  11.9174689  42.1263698
  67.1644965  11.2512077  40.9356020  67.5218763  11.3598017  41.6243240
  64.1732446  20.9830305  57.0463228  63.6432370  20.2922744  57.0958203
  64.4457539  20.9740491  56.2175937  64.1357168  20.8797437  56.9310644
  75.2052536  21.5656008  45.7700911  75.9286735  22.0314121  45.6265484
  74.7653127  21.6329617  45.0198508  75.2468228  21.6439844  45.6385692
  74.3738691  18.4253550  57.0201600  73.7595684  17.8811600  57.3150235
  74.8905976  17.9117786  56.5407416  74.3594354  18.2689959  56.9925828
  73.6134989  19.4957820  54.7545898  73.1862597  18.8707539  54.3211334
  73.6059933  19.2132742  55.5804905  73.5494130  19.3610601  54.8125726
  66.7297516  14.5322993  57.8234332  66.8891002  13.7766317  58.2286054
  66.5490409  15.0813933  58.4775070  66.7262875  14.5016807  57.9797038
  71.9420698  10.3726575  54.9688432  71.9663185   9.8386687  54.2801212
  72.1932172   9.8643883  55.6314023  71.9830617  10.2187479  54.9653077
  59.4528288  17.6558070  54.4031576  59.3471737  17.6104914  53.5383660
  58.7028508  18.0011850  54.6845861  59.3263891  17.6998978  54.3168906
  68.2222020   9.0997393  54.3494177  68.2620392   9.6006599  55.0628884
  67.3971685   9.1907786  54.0800100  68.1061546   9.1879209  54.4144715
  70.4051633  18.6658133  62.4514471  69.5547264  18.8029847  62.5872116
  70.5679761  17.9321911  62.8962173  70.3035497  18.5772234  62.5370070
  69.6436384  15.6157903  56.6468076  68.8128313  15.7831721  56.4403324
  69.5887901  15.2393853  57.4316961  69.5125799  15.5847634  56.7316604
  68.0172428  13.8913494  47.1758193  68.1575389  14.3885958  47.8786835
  68.5154960  13.1899789  47.3172407  68.1113509  13.8615473  47.3009772
  68.0472650  14.7580605  44.5050770  68.6817729  15.3541030  44.4400232
  68.1298261  14.4584063  45.3196640  68.1529201  14.8021513  44.6153857
  69.6251633  10.6894581  44.4796212  69.9467474  10.2097663  43.8255474
  69.8878577  11.4994227  44.2887024  69.7117658  10.7384479  44.3551704
  72.8548606  21.7113455  57.9995028  72.3473697  22.2649302  58.4435659
  72.5575252  21.7721745  57.1813803  72.7353491  21.8019766  57.9443485
  64.5525638  16.9548446  47.7740316  65.0617867  17.5512954  48.1551622
  65.0259910  16.6874420  47.0916736  64.6969014  17.0034261  47.7294839
  75.4656386  25.6276713  45.9298972  74.7485696  25.4537575  45.4646209
  76.1163124  25.3929285  45.3974458  75.4558236  25.5672505  45.7828190
  78.0504357  14.5041301  49.6740277  77.3795547  15.0471003  49.5453342
  78.7444107  14.9736157  49.4321972  78.0533225  14.6539572  49.6195804
  72.0991091  26.6438013  54.9052035  71.8756745  25.8856842  55.2736061
  71.6100934  26.6736034  54.1832475  71.9934540  26.5360238  54.8528776
  66.9116170  13.5904705  50.6413496  66.1928159  14.0068837  50.9086360
  67.2828532  14.1558943  50.0905135  66.8608101  13.7353986  50.5996303
  76.2115750  14.2232553  56.5315492  76.1913678  14.0415849  57.3850271
  76.2594951  15.0944572  56.5075076  76.2150391  14.3249092  56.6538787
  74.1562080  20.8119745  62.4563969  74.1157935  20.1669422  61.8709125
  74.9685399  20.7556363  62.7689381  74.2705234  20.7078712  62.4160918
  70.7469548  26.8638471  52.3589120  70.3329946  26.2012602  51.9692961
  71.4316922  27.0116330  51.8384814  70.7867920  26.7879129  52.2245617
  72.6862744  12.6302704  45.9786876  72.0927583  12.9519701  45.4271443
  72.7238022  11.7843800  45.7707982  72.6037133  12.5527033  45.8669647
  75.5620561  12.5882209  49.4088626  75.3334254  12.6114910  48.5666984
  75.8218637  11.7639676  49.5283637  75.5666749  12.4698289  49.3013824
  69.8439789  14.4416682  59.0113726  69.3318692  13.8337865  59.3698758
  69.6719285  15.1573275  59.4787702  69.7429426  14.4579981  59.1329950
  64.6905504  12.8854257  61.6616088  64.5208094  13.5455632  61.1164295
  64.2471454  13.0960819  62.3828577  64.6004837  13.0140239  61.6877718
  68.6165323  11.1258755  50.7042822  69.0922689  11.4875835  50.0693003
  68.1153923  11.7815223  50.9842965  68.6130682  11.2752944  50.6519563
  61.5907568  15.7901123  56.9204578  61.0434288  15.1201768  57.0385446
  62.3799946  15.4230971  56.9848045  61.6259752  15.6366109  56.9473279
  71.4391977  15.4508580  62.4167989  72.1903304  15.7660257  62.7307543
  71.6314553  15.2487751  61.5901911  71.5783391  15.4675962  62.3411385
  70.6591976  13.2699955  44.0716206  71.0390941  13.2879584  43.2867321
  69.9184572  13.7153944  43.9507053  70.6060814  13.3381730  43.9379774
  60.3494538  15.0021931  54.0750601  60.1716299  14.5498540  54.8005517
  60.0613560  15.8048092  54.2589079  60.2807491  15.0544488  54.2094104
  76.0118119  16.2579648  53.3127991  76.5071784  15.5402643  53.2732012
  75.2017895  15.9550446  53.1982478  75.9662012  16.1077294  53.2901717
  71.4576730  20.1077461  45.4624996  70.6488053  19.7844135  45.4158305
  71.9651639  19.4010683  45.3953244  71.4126397  19.9558778  45.4455290
  62.0867008  17.5349654  51.1872360  61.2212527  17.5235345  51.0755131
  62.1865823  17.3479877  52.0343499  61.9741175  17.5055716  51.2961305
  78.0769938  19.0083336  56.0005120  78.5025009  18.4857757  55.4475545
  77.7126858  19.6064173  55.4793743  78.0856540  19.0193563  55.8414130
  67.7124017  27.3047553  54.7602466  68.0270576  28.1183941  54.7680247
  68.1217431  26.9197772  55.4284625  67.8192115  27.3676255  54.8606557
  74.6648537  22.7217600  52.3306278  75.1359715  23.4357862  52.4996263
  75.0008716  22.1216350  52.8666147  74.7843652  22.7389064  52.4338654
  75.3022483  22.5135534  59.0933970  74.7543429  21.8893418  58.8254036
  75.7635512  22.7029806  58.3778050  75.2889693  22.4494584  58.9484401
  70.6511147   9.4961483  46.7543837  71.4726841   9.6659796  46.5125532
  70.1880798   9.6508744  46.0310135  70.7042309   9.5443216  46.6115482
  65.0537038  21.2520661  54.4081074  65.6581895  21.2116496  53.7794895
  64.8464350  22.0991813  54.4385130  65.1125935  21.3708664  54.3197191
  74.8680810  23.5186607  55.6243311  75.6879184  23.3749573  55.8859607
  74.5874887  24.1432805  56.1659749  74.9477553  23.5896959  55.7431251
  60.2888320  20.2355279  54.2779997  60.1912598  19.4251550  54.5870054
  61.0717190  20.2147072  53.8926265  60.3904456  20.1122369  54.2666860
  73.6985085  35.8328506  50.9991456  73.4635270  34.9996158  50.8923725
  73.8370726  36.1133172  50.1852657  73.6840748  35.7512009  50.8633811
  75.9975173  28.0014237  53.8975764  75.3780204  27.4106884  53.7285778
  75.8959036  28.5925672  53.2640087  75.8912848  28.0018319  53.7780753
  75.7244306  31.5466518  56.1419333  75.6003002  32.1328964  56.7769151
  76.3762590  31.0526714  56.4431608  75.8017955  31.5605323  56.2805262
  75.2602410  40.7114177  52.2747662  74.7769988  41.4364666  52.2507246
  76.0725728  41.0090307  52.3857820  75.3093158  40.8616530  52.2874941
  78.1146607  41.2270353  52.4267942  78.8167186  40.7122342  52.4840699
  78.0344090  41.5544504  53.2314817  78.2070368  41.1984579  52.5540734
  77.8282951  25.5788782  44.4930562  77.6458524  25.7960663  43.6671555
  78.6908564  25.6927795  44.5489177  77.9287540  25.6278680  44.3785049
  77.4397383  37.4176705  51.9353550  78.2786282  37.6499637  51.9827312
  77.4709152  36.5481016  51.8660585  77.5679100  37.3233651  51.9318195
  78.0650086  37.8377580  56.2366856  78.6048310  37.6948711  56.9070228
  77.3820032  38.2374331  56.6050882  78.0442239  37.8757251  56.3901277
  73.4687231  34.0577871  56.3901277  73.2025646  33.2416987  56.5492267
  73.4825795  34.1031026  55.5196793  73.4311953  33.9434775  56.2854759
  77.3744978  28.8562955  43.0053035  76.6603155  28.5701135  43.4175468
  77.8588946  29.1959581  43.6459423  77.3404341  28.8644605  43.1608670
  78.2185837  27.5956249  59.0368285  77.5257634  27.1253229  59.2829016
  78.8346164  27.3694553  59.6109992  78.2070367  27.4923381  59.1577437
  73.8780644  34.8436650  53.6713021  73.6956217  34.8183536  52.8185313
  74.6130313  35.3135588  53.7101930  73.9594708  34.9098012  53.5510940
  76.9426396  31.5621653  60.1795130  77.6666368  31.5474684  60.6660025
  77.0442532  32.2717008  59.6817098  77.0644605  31.6646356  60.1773917
  73.8451555  31.7230151  53.8212088  74.4225057  31.5866601  54.4604333
  73.1465616  31.2665935  54.0757672  73.8272576  31.6352417  53.9534378
  74.9086346  39.3433777  54.5891267  74.9490492  39.6148628  53.7611047
  75.4680871  39.8675685  55.0049055  74.9969692  39.4609532  54.5283155
  76.3600933  37.9275726  49.4145193  75.5339050  38.1737463  49.2879472
  76.4212924  37.8487806  50.2807251  76.2475100  37.9520675  49.5234138
  78.5776956  23.9944667  50.3740633  77.7099382  24.0667266  50.4398242
  78.8652161  24.7966746  50.5628608  78.4916705  24.1238814  50.4115400
  77.9922625  34.6093305  52.4480074  77.7035873  33.9830776  52.9825802
  78.8605973  34.5513592  52.5144755  78.0782876  34.5080849  52.5371029
  76.5044309  27.4702926  47.8157509  76.2169104  27.1004196  47.0789457
  77.1914777  27.9397781  47.5541214  76.5633206  27.4849895  47.6672585
  76.9905597  33.7413946  58.3679054  77.5026694  34.0198200  57.7187814
  76.7041939  34.4803241  58.7341867  77.0240460  33.8916300  58.3268932
  74.0772503  28.2484138  48.6642791  74.1788640  29.0510300  48.9923766
  74.8728390  28.0471474  48.3665871  74.2100409  28.3370037  48.6678146
  74.8936235  28.3631317  56.4063912  74.7521727  27.5115257  56.5308420
  75.1776799  28.4059977  55.5826118  74.9144081  28.2431067  56.3031536
  75.6626541  26.2761664  59.7241363  75.1268730  25.6642022  60.0402130
  75.7244305  26.8509800  60.3775029  75.5922173  26.2708592  59.8676789
  77.7815296  33.6842398  49.5361417  77.9379916  33.6189201  50.3917409
  78.1215889  34.4590951  49.3240097  77.8548531  33.7891596  49.6316011
  74.3549558  30.8677349  49.8522184  74.7348523  31.2861894  49.1882452
  73.7804923  31.4490804  50.1591028  74.3260883  31.0155208  49.7998925
  77.9980359  32.4337753  54.4837679  77.1568366  32.3341628  54.6916573
  78.2070367  33.2033234  54.8351999  77.9045052  32.5329797  54.5664994
  75.4755926  30.0557290  52.3122429  75.0812624  30.1300302  51.5372539
  74.9196043  30.4415237  52.8630791  75.3358739  30.1239065  52.2790089
  77.8889167  34.8281516  55.9029312  77.2977100  35.4691014  55.8732327
  78.6510191  35.2519133  55.8760611  77.9137428  34.9857354  55.8944459
  78.2849790  25.9883514  56.5697329  78.7451272  26.0622443  57.3072453
  78.3305897  26.7864768  56.2197151  78.3600345  26.1177661  56.6270086
  75.0737568  29.6172704  58.9449045  75.9363181  29.5168413  58.8586375
  74.7429351  29.0367414  58.3834618  75.1522764  29.5164331  58.8494451
  78.4339354  28.4415153  55.6059464  77.8092424  28.4533545  54.9985416
  78.0984949  28.9175328  56.2550704  78.2924846  28.5133670  55.6116032
  78.6181103  26.7840272  41.6632149  78.2693907  27.4359997  42.1263698
  78.1377548  26.7697385  40.9356020  78.4951346  26.8783325  41.6243240
  75.1465029  36.5015613  57.0463228  74.6164954  35.8108052  57.0958203
  75.4190123  36.4925799  56.2175937  75.1089752  36.3982745  56.9310644
  77.7030099  30.0508301  57.8234332  77.8623586  29.2951625  58.2286054
  77.5222993  30.5999241  58.4775070  77.6995458  30.0202115  57.9797038
  70.4260872  33.1743377  54.4031576  70.3204321  33.1290222  53.5383660
  69.6761092  33.5197158  54.6845861  70.2996475  33.2184286  54.3168906
  75.5258222  32.4733754  47.7740316  76.0350451  33.0698261  48.1551622
  75.9992494  32.2059728  47.0916736  75.6701597  32.5219569  47.7294839
  77.8848753  29.1090012  50.6413496  77.1660742  29.5254145  50.9086360
  78.2561116  29.6744251  50.0905135  77.8340685  29.2539294  50.5996303
  75.6638087  28.4039565  61.6616088  75.4940678  29.0640940  61.1164295
  75.2204037  28.6146126  62.3828577  75.5737421  28.5325547  61.6877718
  72.5640152  31.3086431  56.9204578  72.0166871  30.6387076  57.0385446
  73.3532530  30.9416279  56.9848045  72.5992335  31.1551417  56.9473279
  71.3227121  30.5207239  54.0750601  71.1448882  30.0683848  54.8005517
  71.0346143  31.3233400  54.2589079  71.2540074  30.5729796  54.2094104
  73.0599591  33.0534962  51.1872360  72.1945111  33.0420653  51.0755131
  73.1598407  32.8665185  52.0343499  72.9473758  33.0241024  51.2961305
  76.0269621  36.7705969  54.4081074  76.6314479  36.7301804  53.7794895
  75.8196934  37.6177121  54.4385130  76.0858518  36.8893972  54.3197191
  71.2620904  35.7540587  54.2779997  71.1645182  34.9436858  54.5870054
  72.0449773  35.7332380  53.8926265  71.3637040  35.6307677  54.2666860
  73.3935909  12.7706637  37.9331503  73.1586094  11.9374289  37.8263772
  73.5321550  13.0511303  37.1192704  73.3791572  12.6890141  37.7973858
  74.9553234  17.6492308  39.2087709  74.4720812  18.3742798  39.1847293
  75.7676552  17.9468438  39.3197867  75.0043982  17.7994662  39.2214988
  77.8097431  18.1648484  39.3607989  78.5118010  17.6500473  39.4180745
  77.7294914  18.4922635  40.1654864  77.9021191  18.1362710  39.4880781
  77.1348206  14.3554836  38.8693597  77.9737106  14.5877769  38.9167358
  77.1659976  13.4859147  38.8000632  77.2629924  14.2611782  38.8658241
  77.7600909  14.7755711  43.1706902  78.2999134  14.6326842  43.8410275
  77.0770856  15.1752462  43.5390929  77.7393063  14.8135382  43.3241324
  73.1638055  10.9956002  43.3241324  72.8976470  10.1795118  43.4832314
  73.1776619  11.0409157  42.4536839  73.1262777  10.8812907  43.2194806
  73.5731468  11.7814781  40.6053068  73.3907041  11.7561667  39.7525360
  74.3081137  12.2513719  40.6441977  73.6545532  11.8476143  40.4850987
  74.6037170  16.2811908  41.5231314  74.6441316  16.5526759  40.6951093
  75.1631694  16.8053816  41.9389102  74.6920516  16.3987663  41.4623202
  76.0551757  14.8653857  36.3485240  75.2289874  15.1115594  36.2219519
  76.1163748  14.7865938  37.2147298  75.9425924  14.8898806  36.4574184
  78.7756501  19.4598119  37.1164419  78.5556797  19.1695474  37.9091087
  78.5551023  18.8013074  36.5882332  78.7104095  19.3197828  37.1553328
  77.8905722  13.1866687  35.3062486  78.6451690  13.5679726  35.5197949
  77.2976335  13.6377831  35.7609183  77.9142435  13.3095514  35.4045365
  77.5839991  11.7659647  42.8369358  76.9927924  12.4069145  42.8072374
  78.3461015  12.1897264  42.8100658  77.6088252  11.9235485  42.8284506
  74.8415853  13.4393744  43.9803275  74.3115778  12.7486183  44.0298250
  75.1140947  13.4303930  43.1515983  74.8040576  13.3360876  43.8650691
  70.1211696  10.1121509  41.3371623  70.0155145  10.0668353  40.4723707
  69.3711916  10.4575289  41.6185908  69.9947298  10.1562417  41.2508953
  78.3807425  19.7610992  41.6942512  78.6953984  20.5747381  41.7020294
  78.7900838  19.3761211  42.3624672  78.4875523  19.8239694  41.7946604
  75.7220445  13.7084101  41.3421121  76.3265303  13.6679935  40.7134942
  75.5147758  14.5555253  41.3725177  75.7809342  13.8272103  41.2537237
  70.9571727  12.6918718  41.2120044  70.8596005  11.8814990  41.5210101
  71.7400597  12.6710511  40.8266312  71.0587864  12.5685808  41.2006907
  26.4962844  30.4705927  74.4471455  26.4656848  31.3250564  74.6189724
  27.0944193  30.1701220  75.0057598  26.5800002  30.5522424  74.5546257
  14.0803669  39.0944296  74.9661617  13.3286568  38.7159835  74.7377662
  14.5289680  39.1262730  74.2180427  14.0353335  39.0429903  74.8219119
  19.5328629  39.5169666  70.3947164  19.1979997  40.1946587  69.9591386
  20.0455499  39.1274977  69.8064035  19.5594210  39.5594244  70.2433955
  19.0732920  41.4683934  76.3358275  19.4572299  42.0370833  75.7963051
  19.0092061  40.7433445  75.8564091  19.1206347  41.4459398  76.1852138
  24.3179419  33.0458229  72.7189764  24.2018945  33.7965916  73.1481903
  25.1135305  32.7882183  72.9685852  24.4184008  33.1193076  72.8193856
  15.4989164  44.0240278  78.6339245  16.1426620  44.4653442  79.0235404
  15.8245420  43.2193704  78.5469504  15.6420993  43.9705472  78.6784722
  16.2009744  37.0352252  74.0059107  16.5225585  37.5757460  73.4020415
  16.8481841  36.4649024  74.1381397  16.3435799  37.0311428  73.9366142
  18.4399388  35.4238692  74.0773285  18.8793023  34.8155793  74.5228058
  18.2904050  35.0446066  73.3058750  18.4820853  35.2777164  74.0292452
  22.0408724  33.7765874  71.0304054  21.9560019  34.6326840  71.1753623
  22.5293107  33.5010198  71.6986213  22.0997621  33.8623195  71.1506136
  22.9727157  30.3950668  72.5301789  22.4438629  30.6110301  73.1899096
  23.4952177  31.0886806  72.4502759  22.9715610  30.5293805  72.6157389
  28.4275210  35.9696972  77.9034834  27.5972913  36.1807616  78.0668250
  28.3784463  35.1434027  77.6277117  28.2981946  35.8786579  77.8872199
  14.8626765  34.2913885  71.3309257  14.2783980  34.7963916  71.7375121
  14.4596860  34.0656272  70.5905849  14.7166069  34.3322133  71.2814283
  19.3203980  30.5379537  69.8078178  19.5599983  30.7457520  68.9953521
  19.6419821  29.7337045  69.9167123  19.4041137  30.4493638  69.7038731
  25.6839525  36.6396327  78.0399550  25.2474757  36.6433069  78.7958521
  25.3502441  37.3201826  77.6079127  25.5702145  36.7408783  78.0880382
  12.5313362  28.1517424  68.8638302  11.8171539  27.8655604  69.2760734
  13.0157330  28.4914050  69.5044689  12.4972725  28.1599074  69.0193937
  28.8183872  33.3577247  76.9319187  29.4800306  32.7967915  76.8315095
  28.1775284  32.8629277  77.2571878  28.8212739  33.2013656  76.9651527
  19.7060679  36.6547378  69.2400110  20.1211828  36.3232402  68.5484606
  18.8752609  36.4216280  69.1120247  19.6448688  36.5718634  69.1190958
  25.1048702  34.3742629  76.6731176  25.3404292  34.5187828  75.8458026
  25.2538266  35.1385037  77.0662689  25.1614506  34.5081683  76.6094780
  26.9339159  33.2144295  74.5100779  27.2647376  33.7471935  73.9040874
  27.5072247  33.2683183  75.1662730  27.0672838  33.3013864  74.5178561
  22.3994070  32.9057937  68.4261312  22.3174232  32.9760125  69.2916299
  23.0373790  33.4687681  68.2345052  22.4813907  32.9996909  68.5251261
  28.0418511  28.4554792  76.0140941  27.7855075  27.6434733  75.8238824
  28.8847825  28.4632359  75.7871128  28.1284536  28.3366789  75.9525758
  19.5034180  32.9278392  71.4369918  20.3174819  33.2193285  71.3252689
  19.4393321  32.2738254  70.8628211  19.6136919  32.8743586  71.3358755
  16.0144903  31.6202199  70.9017120  16.3990056  31.4009906  71.6533665
  15.7656523  32.4465144  71.0318196  16.0346976  31.7100345  71.0318196
  16.2968146  39.8407075  72.9749490  16.5866444  39.4496056  72.2508716
  17.0271627  40.0223780  73.4154765  16.4475030  39.8100889  72.9332297
  14.2374061  41.8174457  76.0409640  14.0174357  41.5271812  76.8336307
  14.0168583  41.1589412  75.5127552  14.1721655  41.6774166  76.0798548
  16.4042017  43.1903847  74.8240332  17.0566075  42.6580290  75.0531358
  15.7067626  42.8372500  75.2108206  16.3972735  43.0593370  74.9152500
  24.3981935  35.5108261  74.1671311  24.9639968  36.1701471  74.0829854
  23.7509839  35.8557959  74.6387713  24.3860692  35.6590203  74.2244068
  20.8688513  38.4547045  73.5908390  20.6275189  37.7214906  73.1835455
  21.0489846  39.0033902  72.9374724  20.8596137  38.4269437  73.4338613
  25.5944633  35.5614489  70.9596948  25.2151442  34.7751627  70.9526237
  24.9310879  36.1101346  70.8168592  25.4403108  35.5259313  70.9377745
  18.4191541  39.1128008  74.7985774  19.1841433  38.8437652  74.4768438
  18.3169631  38.6278018  75.5155837  18.5173037  39.0017573  74.8565602
  20.9410202  36.1440192  66.7785723  21.7083187  36.2040317  66.3691575
  20.4941511  35.5720633  66.2942042  20.9883629  36.0676767  66.6463434
  23.8404732  37.8059980  71.2948634  23.9224569  38.6126966  70.9710084
  24.3254474  37.8255939  72.0189407  23.9241890  37.9280642  71.3535532
  19.4762825  32.3554751  74.2640047  20.0178370  31.8525132  74.7278668
  19.7909384  32.3019946  73.4529532  19.6027222  32.2734172  74.2123859
  17.6449275  37.7472102  71.5480075  17.7142095  36.8886641  71.6873076
  18.4237730  37.9643983  71.2199100  17.7702125  37.6524966  71.5197233
  22.0356762  40.1709804  75.7616569  21.6436554  39.8676519  75.0439435
  22.1909834  41.0078894  75.5721522  22.0010352  40.2493640  75.6273066
  22.1996437  36.7359793  75.7022599  21.8411092  36.9074435  76.4786632
  21.7135148  37.1972998  75.1450598  22.0755134  36.8298764  75.7347868
  16.9884802  32.4158958  68.2422834  17.2777327  33.1923840  68.5166408
  17.0756601  31.9047689  68.9437333  17.0439059  32.4550876  68.3865331
  22.8047067  39.5745296  79.1946603  22.6066756  40.0636111  78.5002814
  22.1834778  39.7786538  79.7730736  22.6834632  39.6761835  79.1769826
  21.7816421  27.8092221  72.4976520  21.2539440  27.8920965  71.8082229
  22.2412129  28.5510093  72.4941165  21.7718272  27.9312884  72.3951216
  13.7749486  26.0794741  67.5217416  13.4262291  26.7314466  67.9848965
  13.2945932  26.0651854  66.7941287  13.6519730  26.1737794  67.4828507
  21.3353504  36.3795785  71.6286177  22.0587703  36.8453898  71.4850751
  20.8954095  36.4469394  70.8783774  21.3769196  36.4579621  71.4970959
  14.1773618  29.5720382  70.3636037  14.8118697  30.1680807  70.2985499
  14.2599228  29.2723840  71.1781907  14.2830169  29.6161290  70.4739123
  21.5957354  40.4416490  71.7884238  20.8786663  40.2677352  71.3231476
  22.2464091  40.2069062  71.2559724  21.5859204  40.3812282  71.6413456
  16.8770515  41.6778248  78.2174386  16.4630914  41.0152379  77.8278228
  17.5617890  41.8256107  77.6970081  16.9168887  41.6018906  78.0830884
  20.2435810  40.8368334  78.9698003  19.8452093  40.9470604  78.2018823
  19.6287029  41.0450400  79.5524563  20.0934699  40.8841902  78.9429302
  27.9777652  35.4120300  72.3541094  28.3611258  36.1611656  72.5839191
  27.1821766  35.6586120  72.0953083  27.9171434  35.5589994  72.3498667
  16.7892944  28.0839732  69.9301473  17.1691909  28.1019361  69.1452587
  16.0485540  28.5293721  69.8092320  16.7361782  28.1521507  69.7965041
  17.5877698  34.9217238  71.3210263  16.7789021  34.5983912  71.2743572
  18.0952607  34.2150460  71.2538511  17.5427365  34.7698555  71.3040557
  37.4695428  45.9891235  74.4471455  37.4389432  46.8435872  74.6189724
  38.0676776  45.6886528  75.0057598  37.5532586  46.0707732  74.5546257
  30.6695113  45.0766886  79.2024385  29.8133008  45.2375385  79.2533502
  30.7162766  44.2058950  79.2229446  30.5494224  44.9717688  79.2130451
  25.0536252  54.6129604  74.9661617  24.3019152  54.2345143  74.7377662
  25.5022264  54.6448038  74.2180427  25.0085919  54.5615211  74.8219119
  30.5061212  55.0354974  70.3947164  30.1712581  55.7131895  69.9591386
  31.0188083  54.6460285  69.8064035  30.5326793  55.0779552  70.2433955
  30.0465503  56.9869242  76.3358275  30.4304883  57.5556141  75.7963051
  29.9824645  56.2618753  75.8564091  30.0938931  56.9644706  76.1852138
  33.5146934  47.1358930  81.8456037  34.0602894  47.8144017  81.9050006
  33.4563810  46.9946391  80.9857618  33.5862848  47.2150932  81.7268097
  26.6321008  54.6247996  77.2324389  26.7331371  53.8148350  77.5421517
  26.0362754  54.5304943  76.6024068  26.5593547  54.4913024  77.1850628
  35.2912002  48.5643537  72.7189764  35.1751528  49.3151223  73.1481903
  36.0867889  48.3067491  72.9685852  35.3916592  48.6378384  72.8193856
  26.4721748  59.5425586  78.6339245  27.1159203  59.9838750  79.0235404
  26.7978004  58.7379012  78.5469504  26.6153577  59.4890780  78.6784722
  19.8286053  50.6468283  76.8576723  19.5936237  49.8135935  76.7508992
  19.9671693  50.9272949  76.0437924  19.8141715  50.5651786  76.7219078
  22.1276140  42.8154014  79.7561030  21.5081172  42.2246661  79.5871045
  22.0260004  43.4065449  79.1225354  22.0213816  42.8158096  79.6366020
  27.1742328  52.5537560  74.0059107  27.4958169  53.0942768  73.4020415
  27.8214424  51.9834332  74.1381397  27.3168383  52.5496736  73.9366142
  29.2244036  44.5553555  74.0893494  29.9224200  44.7341683  74.5814957
  29.5396368  44.0323895  73.4663883  29.3739373  44.5047327  74.0695504
  21.8545273  46.3606295  82.0004599  21.7303970  46.9468741  82.6354418
  22.5063558  45.8666491  82.3016874  21.9318923  46.3745100  82.1390529
  29.4131971  50.9424000  74.0773285  29.8525607  50.3341101  74.5228058
  29.2636634  50.5631374  73.3058750  29.4553437  50.7962471  74.0292452
  26.8803614  49.5368012  81.2792111  27.5252617  49.0440455  80.9603059
  27.1205391  49.6792799  82.1058189  27.0114199  49.4845454  81.3541644
  29.4189706  52.3822918  80.9299003  29.7012948  51.5874324  80.7085759
  30.1475866  52.8603505  80.9504064  29.5679269  52.3357515  80.9002018
  27.3970899  39.9245952  78.1714768  27.0674229  40.3757096  77.5018467
  26.7215901  39.8462115  78.7187775  27.2481336  39.9797087  78.1537991
  33.0141308  49.2951182  71.0304054  32.9292603  50.1512148  71.1753623
  33.5025691  49.0195506  71.6986213  33.0730205  49.3808503  71.1506136
  34.6047307  35.9131475  76.4164379  34.2900748  36.6034953  76.8484801
  34.0874249  35.8576257  75.7149880  34.4811778  36.0066363  76.3761328
  33.9459741  45.9135976  72.5301789  33.4171212  46.1295609  73.1899096
  34.4684761  46.6072114  72.4502759  33.9448194  46.0479113  72.6157389
  39.4007794  51.4882280  77.9034834  38.5705497  51.6992924  78.0668250
  39.3517046  50.6619335  77.6277117  39.2714529  51.3971887  77.8872199
  25.8359349  49.8099193  71.3309257  25.2516564  50.3149224  71.7375121
  25.4329444  49.5841579  70.5905849  25.6898653  49.8507441  71.2814283
  21.3903377  55.5253954  78.1332929  20.9070956  56.2504443  78.1092513
  22.2026696  55.8230084  78.2443087  21.4394125  55.6756307  78.1460208
  27.4617531  54.3186134  80.7382743  26.9444473  53.9593549  80.1344051
  28.1591923  53.7948309  80.7488810  27.4883113  54.1883822  80.6513002
  30.2936563  46.0564845  69.8078178  30.5332567  46.2642828  68.9953521
  30.6152404  45.2522353  69.9167123  30.3773721  45.9678946  69.7038731
  25.6026853  37.9858240  73.6537716  26.3572821  38.3536557  73.4154766
  25.4254388  38.3597795  74.4216896  25.6881332  38.0956428  73.7322604
  24.2447575  56.0410130  78.2853209  24.9468154  55.5262119  78.3425965
  24.1645058  56.3684281  79.0900084  24.3371335  56.0124356  78.4126001
  38.8961752  44.1352681  81.6985255  38.0590173  44.2054868  81.9332850
  38.8649983  44.1377176  80.8259558  38.7680035  44.1462908  81.6044803
  23.9583918  40.3928559  70.3515829  23.7759491  40.6100440  69.5256822
  24.8209531  40.5067572  70.4074443  24.0588508  40.4418457  70.2370316
  23.5698350  52.2316482  77.7938817  24.4087249  52.4639414  77.8412578
  23.6010119  51.3620793  77.7245852  23.6980068  52.1373428  77.7903461
  24.1951053  52.6517357  82.0952122  24.7349278  52.5088488  82.7655495
  23.5120999  53.0514108  82.4636149  24.1743207  52.6897028  82.2486544
  29.6383637  37.3954970  73.3864853  30.3669798  37.2170925  72.9403009
  29.7278530  38.2373050  73.5972031  29.7590299  37.4938848  73.3518370
  33.6191938  48.3308357  77.2897147  34.3749453  48.7639872  77.3286055
  33.7254262  47.6813127  77.8631783  33.7462109  48.2985841  77.3795172
  36.6572109  52.1581635  78.0399550  36.2207341  52.1618377  78.7958521
  36.3235025  52.8387134  77.6079127  36.5434729  52.2594090  78.0880382
  36.5769592  39.1995462  80.2828978  37.2195500  39.2693567  80.8690893
  36.8292613  38.5324685  79.7808520  36.7091724  39.1121811  80.2956257
  23.5045945  43.6702732  68.8638302  22.7904122  43.3840912  69.2760734
  23.9889914  44.0099358  69.5044689  23.4705308  43.6784382  69.0193937
  39.7916455  48.8762555  76.9319187  40.4532889  48.3153223  76.8315095
  39.1507867  48.3814585  77.2571878  39.7945323  48.7198964  76.9651527
  30.6793263  52.1732686  69.2400110  31.0944412  51.8417710  68.5484606
  29.8485193  51.9401588  69.1120247  30.6181272  52.0903942  69.1190958
  20.0081612  49.6576427  79.5298288  19.8257185  49.6323313  78.6770580
  20.7431281  50.1275365  79.5687197  20.0895676  49.7237789  79.4096207
  36.0781286  49.8927937  76.6731176  36.3136875  50.0373136  75.8458026
  36.2270850  50.6570345  77.0662689  36.1347089  50.0266991  76.6094780
  37.9071743  48.7329603  74.5100779  38.2379960  49.2657243  73.9040874
  38.4804831  48.7868491  75.1662730  38.0405422  48.8199172  74.5178561
  33.1203632  46.5794506  75.1924360  33.2150486  47.3183800  75.6463985
  32.4962475  46.1511981  75.6258924  33.0412662  46.6255826  75.3232507
  19.9752522  46.5369928  79.6797355  20.5526025  46.4006378  80.3189600
  19.2766584  46.0805712  79.9342939  19.9573544  46.4492194  79.8119644
  33.3726653  48.4243245  68.4261312  33.2906816  48.4945433  69.2916299
  34.0106374  48.9872989  68.2345052  33.4546491  48.5182216  68.5251261
  26.7319824  48.1903983  77.8935838  26.4739069  47.3575718  77.8667137
  26.7868307  48.4161596  77.0528338  26.7019602  48.1001755  77.7655975
  31.8120874  40.2932434  77.9939931  31.1077201  39.8041620  78.1523850
  31.8605849  40.3054908  77.1228375  31.7150926  40.2222082  77.8879270
  25.7054536  45.7441746  78.3800733  25.1304128  45.9033914  79.0164694
  25.3290213  45.1077155  77.9169183  25.5657349  45.6739559  78.4055291
  29.3727825  44.2165095  83.2393111  28.9842258  43.7919313  82.5845302
  28.7082523  44.4647245  83.7470138  29.2174753  44.1903816  83.2180979
  39.0151094  43.9740100  76.0140941  38.7587659  43.1620041  75.8238824
  39.8580408  43.9817667  75.7871128  39.1017120  43.8552097  75.9525758
  15.4511355  45.3881821  76.3945173  15.5371607  45.0113689  77.1758703
  16.0787153  45.0142266  75.9165132  15.5567906  45.2767303  76.4390651
  33.1954187  37.9139724  80.7517095  33.5764698  37.2317895  81.1384970
  32.3917471  37.6249326  80.5692760  33.1330648  37.7706772  80.7821151
  30.4766763  48.4463700  71.4369918  31.2907402  48.7378592  71.3252689
  30.4125905  47.7923562  70.8628211  30.5869502  48.3928894  71.3358755
  26.3474672  51.9185217  76.5642230  26.9848619  51.6796965  77.1094024
  26.7729743  52.1222376  75.8295391  26.5050838  51.9136227  76.5359387
  26.9877487  47.1387507  70.9017120  27.3722639  46.9195214  71.6533665
  26.7389107  47.9650452  71.0318196  27.0079559  47.2285653  71.0318196
  28.7296144  52.3957640  78.2436016  28.8035152  52.2332812  79.0977866
  29.5465650  52.5847829  77.9996498  28.8612502  52.3994382  78.3334042
  22.4901900  52.7415503  75.2730460  21.6640018  52.9877240  75.1464739
  22.5513891  52.6627583  76.1392518  22.3776067  52.7660452  75.3819404
  24.7077924  38.8084444  76.2325900  23.8400349  38.8807043  76.2983509
  24.9953128  39.6106523  76.4213875  24.6217672  38.9378591  76.2700667
  33.8310813  38.9562303  84.5637222  34.5764405  38.7672113  84.1500647
  33.4148117  39.4820541  84.0051078  33.8795787  39.0064448  84.4201795
  27.2700729  55.3592383  72.9749490  27.5599028  54.9681364  72.2508716
  28.0004210  55.5409088  73.4154765  27.4207613  55.3286197  72.9332297
  41.2073084  46.3271531  79.5142727  41.7581005  45.6939601  79.7539819
  41.1917199  46.8586924  80.2058231  41.2858280  46.3120480  79.6521585
  27.8595474  50.1610129  84.0602620  27.3607168  50.8725896  84.1387509
  28.6695699  50.4810795  84.0220783  27.9051581  50.3136977  84.0659189
  25.2106645  57.3359765  76.0409640  24.9906940  57.0457120  76.8336307
  24.9901167  56.6774720  75.5127552  25.1454239  57.1959474  76.0798548
  24.1223592  49.4233082  78.3065341  23.8336841  48.7970553  78.8411068
  24.9906940  49.3653369  78.3730022  24.2083844  49.3220626  78.3956296
  34.9101490  44.5667865  78.6247323  34.5666256  43.8458200  78.9754573
  35.0094532  44.3581716  77.7825681  34.8743533  44.4292068  78.5519003
  27.3774601  58.7089155  74.8240332  28.0298659  58.1765597  75.0531358
  26.6800209  58.3557807  75.2108206  27.3705319  58.5778678  74.9152500
  24.3255865  51.0628333  74.2307706  25.0801833  51.4441372  74.4443169
  23.7326478  51.5139476  74.6854403  24.3492579  51.1857160  74.3290585
  35.3714519  51.0293569  74.1671311  35.9372552  51.6886779  74.0829854
  34.7242422  51.3743267  74.6387713  35.3593275  51.1775511  74.2244068
  25.6454092  52.2336894  79.6047822  25.1234846  52.3737186  80.2899686
  26.0328112  51.4747558  79.7949939  25.6257793  52.1422418  79.7348898
  22.6345276  42.2842703  73.6742776  22.3470072  41.9143973  72.9374724
  23.3215744  42.7537558  73.4126481  22.6934173  42.2989672  73.5257852
  31.8421097  53.9732353  73.5908390  31.6007773  53.2400214  73.1835455
  32.0222430  54.5219210  72.9374724  31.8328721  53.9454745  73.4338613
  27.0720418  49.2640913  75.0029313  26.8763200  49.8715648  74.4089616
  27.2954763  48.5708857  74.5220987  27.0755059  49.2518439  74.8445393
  25.4698948  46.1495651  75.1210181  26.1921600  46.3136809  74.6613987
  24.9906940  46.8705316  75.0149521  25.5062678  46.2793881  75.0375795
  33.4292455  42.4859450  80.5006866  32.5903556  42.5120729  80.2645129
  33.4996823  43.1330185  81.0812213  33.3160849  42.5855576  80.5515983
  31.8761734  39.3844827  75.2334482  32.5788086  39.1852575  74.7554440
  31.6105922  38.6120769  75.5403325  31.9408366  39.2407793  75.2079923
  37.3049979  47.6927437  77.7868108  37.2183954  47.8482863  78.6402887
  36.8500459  48.3365512  77.4127513  37.2253236  47.8103192  77.8575214
  20.2073471  43.0623915  74.5228057  20.3089607  43.8650077  74.8509033
  21.0029357  42.8611251  74.2251138  20.3401376  43.1509814  74.5263413
  31.1775795  45.0138184  76.4093667  30.9310509  44.9333935  77.2430456
  31.5060918  44.2291652  76.2156195  31.1897039  44.8864449  76.5041190
  35.0723844  51.7221543  80.1980448  34.9338203  52.4202589  80.7029191
  34.2923842  51.5670200  79.8416630  34.9367071  51.8021710  80.2206723
  27.1372822  47.7494902  85.8216650  27.2816198  48.3296111  85.1859760
  27.4848471  48.1271199  86.5266505  27.2100284  47.8915606  85.8315645
  29.3092740  46.9485071  83.6041782  28.5616054  47.1416085  83.1990060
  29.4634265  46.1230290  83.3665903  29.2215167  46.8550182  83.5087188
  26.2100577  55.9397674  82.6877677  26.3590141  55.3800590  82.0351082
  26.9900580  56.0189676  83.0710196  26.3474671  55.8683240  82.6474626
  36.5677217  51.0799797  70.9596948  36.1884026  50.2936935  70.9526237
  35.9043462  51.6286654  70.8168592  36.4135692  51.0444621  70.9377745
  34.0221843  34.0225497  78.3631029  34.1405411  34.4801960  77.6298331
  33.8484018  33.2170758  78.0767246  34.0141014  33.9719269  78.2131962
  29.3924125  54.6313316  74.7985774  30.1574016  54.3622960  74.4768438
  29.2902215  54.1463326  75.5155837  29.4905620  54.5202881  74.8565602
  27.4276895  42.8337725  81.3379010  26.6372969  42.6529185  81.6596345
  27.8237518  42.0564678  81.3209304  27.3693771  42.6925186  81.3831558
  31.9142786  51.6625500  66.7785723  32.6815771  51.7225625  66.3691575
  31.4674094  51.0905941  66.2942042  31.9616213  51.5862075  66.6463434
  32.8120581  50.4680156  79.0638456  32.1365583  50.2365388  79.5651843
  32.8212957  49.8601338  78.4380561  32.7139086  50.3439081  79.0454608
  29.9414725  45.3097985  85.8202509  29.8773866  46.1707941  85.6922645
  30.0811913  44.9929978  85.0198060  29.9530195  45.3898151  85.6830721
  34.8137316  53.3245288  71.2948634  34.8957153  54.1312274  70.9710084
  35.2987058  53.3441247  72.0189407  34.8974473  53.4465950  71.3535532
  28.6233819  48.0030124  79.9618711  28.1996068  48.2034623  79.2257730
  28.4478674  47.1558972  80.0743011  28.5344700  47.9078905  79.8692402
  23.9116264  48.4982175  75.3946684  24.0680883  48.4328978  76.2502676
  24.2516857  49.2730728  75.1825364  23.9849499  48.6031373  75.4901278
  30.4495408  47.8740059  74.2640047  30.9910954  47.3710440  74.7278668
  30.7641968  47.8205254  73.4529532  30.5759806  47.7919480  74.2123859
  28.6181858  53.2657410  71.5480075  28.6874678  52.4071949  71.6873076
  29.3970313  53.4829291  71.2199100  28.7434708  53.1710274  71.5197233
  31.5984678  42.7676363  84.3162348  31.8126647  42.1287278  83.7625702
  30.9818577  43.2122187  83.8870209  31.5390007  42.7386507  84.1712779
  33.0089346  55.6895112  75.7616569  32.6169137  55.3861827  75.0439435
  33.1642418  56.5264202  75.5721522  32.9742936  55.7678948  75.6273066
  20.4850525  45.6817126  75.7107451  20.8649490  46.1001671  75.0467719
  19.9105890  46.2630581  76.0176295  20.4561850  45.8294985  75.6584192
  33.7623766  44.3765429  85.2545655  32.9500448  44.0691319  85.3358828
  34.2213700  43.8964429  85.8188367  33.7104151  44.2601921  85.3500249
  33.1729021  52.2545101  75.7022599  32.8143675  52.4259743  76.4786632
  32.6867731  52.7158306  75.1450598  33.0487717  52.3484072  75.7347868
  30.9899407  35.8776299  79.3049691  30.1192964  35.8515020  79.2583000
  31.2439748  35.7053491  78.4875536  30.8992967  35.8486443  79.1769827
  27.9617386  47.9344266  68.2422834  28.2509911  48.7109148  68.5166408
  28.0489185  47.4232997  68.9437333  28.0171642  47.9736184  68.3865331
  28.0148547  37.8882527  80.7623161  27.4987036  37.1962719  80.8874740
  27.4542476  38.5553305  80.7085760  27.8555060  37.8845785  80.7729227
  36.0590760  44.9938142  81.2155716  35.6318368  44.9064491  80.4603815
  35.4216813  45.1015918  81.8010560  35.9020367  44.9970802  81.1901157
  24.1281327  47.2477530  80.3422946  23.2869333  47.1481405  80.5501839
  24.3371335  48.0173011  80.6937266  24.0346019  47.3469574  80.4250261
  21.6056894  44.8697067  78.1707696  21.2113592  44.9440079  77.3957806
  21.0497011  45.2555014  78.7216058  21.4659706  44.9378842  78.1375356
  33.2421841  37.8478361  77.8511575  33.4471434  37.7800669  78.6968572
  32.9148265  38.6537183  77.7832753  33.2237089  37.9564302  77.9671230
  27.9397992  45.1758930  79.5920543  27.6361129  44.6214918  80.1930951
  27.2377413  45.3551140  79.1048577  27.7914202  45.1203712  79.6090249
  26.9964089  42.4859449  74.1565245  27.2723823  41.7678362  73.7442812
  27.5962758  43.0844369  73.9486351  27.1257353  42.4679820  74.0646006
  36.4955528  38.4010126  77.3314341  35.8829842  38.8880528  77.7168072
  36.5919703  37.7253617  77.8751992  36.4193426  38.3728434  77.4693199
  30.4974609  40.1572967  72.4311840  30.9518356  40.3283527  73.1559685
  30.9714655  39.5441078  72.0309616  30.6342929  40.0923852  72.4785602
  24.0190135  49.6421293  81.7614579  23.4278068  50.2830791  81.7317594
  24.7811158  50.0658910  81.7345878  24.0438395  49.7997131  81.7529726
  33.7779651  55.0930604  79.1946603  33.5799340  55.5821419  78.5002814
  33.1567362  55.2971846  79.7730736  33.6567215  55.1947143  79.1769826
  27.8387629  46.8615501  73.5356847  28.5829674  47.2489777  73.7739797
  27.9848326  46.0172927  73.6997335  27.9698214  46.7945974  73.5950817
  29.7567205  38.6565760  78.5688709  28.9103250  38.8288568  78.4430058
  29.7538337  37.8515104  78.9054537  29.6314355  38.5626789  78.5999836
  30.8265505  42.4340974  79.4350767  30.3525459  41.9082737  79.9456077
  31.1983641  41.8870447  78.8665628  30.8115394  42.2756971  79.4265914
  37.0902236  47.4943350  80.8457547  36.8500459  46.6549765  80.8499974
  37.5694243  47.5743517  81.5698321  37.1254419  47.3824750  80.9532349
  32.7549005  43.3277529  72.4976520  32.2272023  43.4106273  71.8082229
  33.2144713  44.0695401  72.4941165  32.7450855  43.4498191  72.3951216
  39.0907423  44.2744807  78.7986806  38.8517193  44.2340642  77.9607591
  39.2541324  45.1215959  78.9252527  39.0797726  44.3936892  78.6940288
  24.5640321  43.2554930  81.4644731  23.9393391  43.2673322  80.8570683
  24.2285916  43.7315105  82.1135971  24.4225813  43.3273447  81.4701299
  24.7482070  41.5980049  67.5217416  24.3994874  42.2499774  67.9848965
  24.2678516  41.5837162  66.7941287  24.6252314  41.6923102  67.4828507
  32.3086087  51.8981093  71.6286177  33.0320286  52.3639206  71.4850751
  31.8686678  51.9654702  70.8783774  32.3501780  51.9764929  71.4970959
  31.4772242  48.7578635  82.8786866  30.8629236  48.2136685  83.1735502
  31.9939527  48.2442871  82.3992683  31.4627905  48.6015044  82.8511095
  30.7168540  49.8282905  80.6131165  30.2896148  49.2032624  80.1796600
  30.7093484  49.5457827  81.4390172  30.6527681  49.6935686  80.6710993
  29.0454249  40.7051659  80.8273699  29.0696736  40.1711772  80.1386479
  29.2965723  40.1968968  81.4899290  29.0864168  40.5512563  80.8238344
  25.3255572  39.4322478  80.2079443  25.3653943  39.9331684  80.9214151
  24.5005236  39.5232871  79.9385366  25.2095097  39.5204294  80.2729982
  26.7469935  45.9482988  82.5053342  25.9161865  46.1156806  82.2988590
  26.6921452  45.5718938  83.2902228  26.6159350  45.9172719  82.5901870
  25.1205979  44.2238579  73.0343460  25.2608940  44.7211043  73.7372101
  25.6188512  43.5224873  73.1757674  25.2147060  44.1940558  73.1595039
  25.1506201  45.0905690  70.3636037  25.7851281  45.6866115  70.2985499
  25.2331812  44.7909148  71.1781907  25.2562752  45.1346598  70.4739123
  26.7285184  41.0219666  70.3381479  27.0501025  40.5422748  69.6840741
  26.9912128  41.8319312  70.1472291  26.8151209  41.0709563  70.2136971
  29.9582157  52.0438540  83.8580295  29.4507248  52.5974387  84.3020925
  29.6608803  52.1046830  83.0399069  29.8387042  52.1344851  83.8028752
  32.1244339  40.4091860  82.7004958  32.5499411  39.9564386  82.0888484
  31.5101332  39.8551930  82.9769745  32.0972984  40.2605836  82.6509983
  21.6559189  47.2873531  73.6325583  22.1651418  47.8838038  74.0136888
  22.1293461  47.0199505  72.9502003  21.8002565  47.3359346  73.5880106
  32.5689937  55.9601798  71.7884238  31.8519247  55.7862660  71.3231476
  33.2196675  55.7254370  71.2559724  32.5591788  55.8997590  71.6413456
  30.5638562  36.8806959  76.1095535  29.9206880  36.7304606  76.6780673
  30.2237969  36.6349305  75.3444640  30.4183639  36.8219082  76.0798550
  35.1537908  44.8366386  75.5325544  34.4829098  45.3796088  75.4038609
  35.8477659  45.3061241  75.2907238  35.1566776  44.9864657  75.4781071
  29.2024642  56.9763098  80.7637302  28.9790296  56.2181927  81.1321328
  28.7134485  57.0061119  80.0417742  29.0968091  56.8685323  80.7114043
  35.3166036  41.2922270  78.4415917  35.6693646  40.8651993  79.1161716
  34.4580837  41.2073113  78.5716993  35.2415480  41.2167010  78.5610927
  24.0149721  43.9229789  76.4998763  23.2961710  44.3393922  76.7671627
  24.3862083  44.4884028  75.9490401  23.9641653  44.0679071  76.4581570
  33.3149302  44.5557638  82.3900759  33.2947229  44.3740934  83.2435538
  33.3628502  45.4269657  82.3660343  33.3183943  44.6574177  82.5124054
  27.8503099  57.1963556  78.2174386  27.4363498  56.5337686  77.8278228
  28.5350473  57.3441415  77.6970081  27.8901471  57.1204214  78.0830884
  31.2168393  56.3553642  78.9698003  30.8184676  56.4655912  78.2018823
  30.6019613  56.5635708  79.5524563  31.0667282  56.4027210  78.9429302
  29.7896295  42.9627789  71.8372143  29.1961134  43.2844786  71.2856710
  29.8271573  42.1168885  71.6293249  29.7070684  42.8852118  71.7254914
  36.7490096  36.4140682  79.3700229  36.2420960  35.7069821  79.3021407
  37.5457530  36.0833870  79.5001306  36.7917335  36.2613833  79.3799224
  32.6654112  42.9207294  75.2673893  32.4367805  42.9439995  74.4252251
  32.9252188  42.0964761  75.3868904  32.6700300  42.8023374  75.1599091
  25.7198874  41.4583840  76.5628089  26.1956240  41.8200920  75.9278270
  25.2187474  42.1140308  76.8428231  25.7164233  41.6078029  76.5104830
  38.9510236  50.9305608  72.3541094  39.3343842  51.6796964  72.5839191
  38.1554349  51.1771428  72.0953083  38.8904018  51.0775302  72.3498667
  27.7625527  43.6025040  69.9301473  28.1424492  43.6204669  69.1452587
  27.0218123  44.0479029  69.8092320  27.7094365  43.6706815  69.7965041
  35.3910818  41.9107231  75.5177051  35.3905044  41.7555888  76.3761328
  35.1866998  42.7570218  75.4618437  35.3610596  42.0127852  75.6364991
  17.4528089  45.3347016  79.9335868  17.2749850  44.8823625  80.6590783
  17.1647111  46.1373177  80.1174345  17.3841042  45.3869573  80.0679371
  33.1151670  46.5904733  79.1713258  33.6105335  45.8727728  79.1317278
  32.3051446  46.2875531  79.0567745  33.0695563  46.4402379  79.1486984
  28.5610281  50.4402546  71.3210263  27.7521604  50.1169220  71.2743572
  29.0685190  49.7335768  71.2538511  28.5159948  50.2883863  71.3040557
  19.1900559  47.8674739  77.0457627  18.3246078  47.8560430  76.9340398
  19.2899375  47.6804962  77.8928766  19.0774726  47.8380801  77.1546571
  35.1803489  49.3408420  81.8590387  35.6058560  48.8182842  81.3060812
  34.8160409  49.9389258  81.3379010  35.1890091  49.3518647  81.6999397
  24.8157569  57.6372638  80.6187732  25.1304128  58.4509026  80.6265514
  25.2250982  57.2522857  81.2869892  24.9225667  57.7001340  80.7191824
  31.7682088  53.0542685  78.1891544  32.2393266  53.7682947  78.3581530
  32.1042267  52.4541435  78.7251414  31.8877203  53.0714149  78.2923920
  35.2149899  40.9145973  82.3370429  34.6312888  41.4155180  81.9247997
  35.5354193  40.4075530  81.7034753  35.1763074  40.9137808  82.1828937
  27.7544698  39.8286568  72.6129104  28.5760392  39.9984881  72.3710799
  27.2914349  39.9833829  71.8895402  27.8075860  39.8768301  72.4700748
  22.1570589  51.5845746  80.2666341  22.7615446  51.5441581  79.6380162
  21.9497901  52.4316898  80.2970397  22.2159486  51.7033749  80.1782457
  31.9714361  53.8511692  81.4828578  32.7912735  53.7074658  81.7444873
  31.6908439  54.4757890  82.0245016  32.0511104  53.9222044  81.6016518
  40.1976619  60.0738863  74.0893494  40.8956784  60.2526991  74.5814957
  40.5128952  59.5509203  73.4663883  40.3471957  60.0232635  74.0695504
  38.3703483  55.4431260  78.1714768  38.0406813  55.8942403  77.5018467
  37.6948485  55.3647423  78.7187775  38.2213919  55.4982395  78.1537991
  45.5779891  51.4316783  76.4164379  45.2633332  52.1220261  76.8484801
  45.0606832  51.3761565  75.7149880  45.4544361  51.5251671  76.3761328
  36.8091932  65.3284501  71.3309257  36.2249148  65.8334532  71.7375121
  36.4062028  65.1026887  70.5905849  36.6631236  65.3692749  71.2814283
  41.2669147  61.5750153  69.8078178  41.5065150  61.7828136  68.9953521
  41.5884988  60.7707661  69.9167123  41.3506305  61.4864254  69.7038731
  36.5759437  53.5043548  73.6537716  37.3305405  53.8721865  73.4154766
  36.3986972  53.8783103  74.4216896  36.6613915  53.6141736  73.7322604
  34.9316502  55.9113867  70.3515829  34.7492075  56.1285748  69.5256822
  35.7942115  56.0252880  70.4074443  35.0321091  55.9603765  70.2370316
  40.6116221  52.9140278  73.3864853  41.3402381  52.7356233  72.9403009
  40.7011114  53.7558358  73.5972031  40.7322883  53.0124156  73.3518370
  34.4778529  59.1888040  68.8638302  33.7636706  58.9026219  69.2760734
  34.9622497  59.5284666  69.5044689  34.4437892  59.1969690  69.0193937
  41.6525847  67.6917994  69.2400110  42.0676995  67.3603018  68.5484606
  40.8217776  67.4586896  69.1120247  41.5913855  67.6089250  69.1190958
  44.3459237  63.9428553  68.4261312  44.2639399  64.0130740  69.2916299
  44.9838957  64.5058297  68.2345052  44.4279074  64.0367524  68.5251261
  26.4243939  60.9067129  76.3945173  26.5104191  60.5298997  77.1758703
  27.0519736  60.5327574  75.9165132  26.5300490  60.7952611  76.4390651
  41.4499347  63.9649008  71.4369918  42.2639986  64.2563900  71.3252689
  41.3858488  63.3108870  70.8628211  41.5602086  63.9114202  71.3358755
  37.9610070  62.6572815  70.9017120  38.3455223  62.4380522  71.6533665
  37.7121691  63.4835760  71.0318196  37.9812143  62.7470961  71.0318196
  35.6810508  54.3269752  76.2325900  34.8132933  54.3992351  76.2983509
  35.9685712  55.1291830  76.4213875  35.5950256  54.4563899  76.2700667
  33.6077860  57.8028011  73.6742776  33.3202655  57.4329281  72.9374724
  34.2948328  58.2722866  73.4126481  33.6666757  57.8174980  73.5257852
  36.4431531  61.6680959  75.1210181  37.1654183  61.8322117  74.6613987
  35.9639524  62.3890624  75.0149521  36.4795262  61.7979189  75.0375795
  42.8494317  54.9030135  75.2334482  43.5520670  54.7037883  74.7554440
  42.5838506  54.1306077  75.5403325  42.9140949  54.7593101  75.2079923
  31.1806054  58.5809223  74.5228057  31.2822191  59.3835385  74.8509033
  31.9761941  58.3796559  74.2251138  31.3133960  58.6695122  74.5263413
  44.9954426  49.5410805  78.3631029  45.1137994  49.9987268  77.6298331
  44.8216602  48.7356066  78.0767246  44.9873597  49.4904577  78.2131962
  42.8875369  67.1810808  66.7785723  43.6548354  67.2410933  66.3691575
  42.4406678  66.6091249  66.2942042  42.9348796  67.1047383  66.6463434
  31.4583109  61.2002434  75.7107451  31.8382074  61.6186979  75.0467719
  30.8838474  61.7815889  76.0176295  31.4294434  61.3480292  75.6584192
  41.9631990  51.3961607  79.3049691  41.0925548  51.3700328  79.2583000
  42.2172331  51.2238799  78.4875536  41.8725550  51.3671751  79.1769827
  38.9349970  63.4529574  68.2422834  39.2242494  64.2294456  68.5166408
  39.0221768  62.9418305  68.9437333  38.9904226  63.4921492  68.3865331
  37.9696672  58.0044757  74.1565245  38.2456407  57.2863670  73.7442812
  38.5695342  58.6029677  73.9486351  38.0989937  57.9865128  74.0646006
  41.4707193  55.6758275  72.4311840  41.9250939  55.8468835  73.1559685
  41.9447239  55.0626385  72.0309616  41.6075513  55.6109160  72.4785602
  38.8120213  62.3800809  73.5356847  39.5562258  62.7675085  73.7739797
  38.9580909  61.5358234  73.6997335  38.9430798  62.3131282  73.5950817
  40.7299788  54.1751068  78.5688709  39.8835833  54.3473876  78.4430058
  40.7270921  53.3700412  78.9054537  40.6046938  54.0812097  78.5999836
  43.7281588  58.8462837  72.4976520  43.2004607  58.9291581  71.8082229
  44.1877297  59.5880708  72.4941165  43.7183439  58.9683499  72.3951216
  35.7214654  57.1165357  67.5217416  35.3727458  57.7685082  67.9848965
  35.2411099  57.1022470  66.7941287  35.5984898  57.2108410  67.4828507
  36.0938562  59.7423887  73.0343460  36.2341523  60.2396351  73.7372101
  36.5921095  59.0410181  73.1757674  36.1879643  59.7125866  73.1595039
  36.1238785  60.6090998  70.3636037  36.7583864  61.2051423  70.2985499
  36.2064396  60.3094456  71.1781907  36.2295336  60.6531906  70.4739123
  37.7017768  56.5404973  70.3381479  38.0233609  56.0608056  69.6840741
  37.9644711  57.3504620  70.1472291  37.7883793  56.5894871  70.2136971
  32.6291773  62.8058839  73.6325583  33.1384002  63.4023346  74.0136888
  33.1026045  62.5384812  72.9502003  32.7735148  62.8544654  73.5880106
  41.5371145  52.3992267  76.1095535  40.8939463  52.2489914  76.6780673
  41.1970552  52.1534612  75.3444640  41.3916223  52.3404390  76.0798550
  34.9882304  59.4415097  76.4998763  34.2694293  59.8579230  76.7671627
  35.3594667  60.0069336  75.9490401  34.9374236  59.5864379  76.4581570
  40.7628879  58.4813097  71.8372143  40.1693718  58.8030094  71.2856710
  40.8004156  57.6354193  71.6293249  40.6803268  58.4037426  71.7254914
  43.6386695  58.4392602  75.2673893  43.4100388  58.4625303  74.4252251
  43.8984771  57.6150069  75.3868904  43.6432883  58.3208682  75.1599091
  36.6931458  56.9769148  76.5628089  37.1688824  57.3386228  75.9278270
  36.1920057  57.6325616  76.8428231  36.6896817  57.1263337  76.5104830
  38.7358111  59.1210348  69.9301473  39.1157076  59.1389977  69.1452587
  37.9950707  59.5664337  69.8092320  38.6826949  59.1892122  69.7965041
  39.5342865  65.9587854  71.3210263  38.7254188  65.6354528  71.2743572
  40.0417774  65.2521076  71.2538511  39.4892532  65.8069170  71.3040557
  30.1633142  63.3860047  77.0457627  29.2978662  63.3745738  76.9340398
  30.2631958  63.1990270  77.8928766  30.0507309  63.3566108  77.1546571
  38.7277282  55.3471876  72.6129104  39.5492976  55.5170189  72.3710799
  38.2646933  55.5019137  71.8895402  38.7808444  55.3953609  72.4700748
  26.1913668   7.4084059  61.3811501  26.1607672   8.2628695  61.5529771
  26.7895017   7.1079351  61.9397645  26.2750826   7.4900555  61.4886304
  13.7754493  16.0322427  61.9001663  13.0237392  15.6537966  61.6717708
  14.2240504  16.0640861  61.1520474  13.7304159  15.9808035  61.7559166
  19.2279452  16.4547797  57.3287211  18.8930821  17.1324719  56.8931433
  19.7406323  16.0653108  56.7404082  19.2545034  16.4972375  57.1774002
  18.7683744  18.4062066  63.2698322  19.1523123  18.9748964  62.7303097
  18.7042885  17.6811576  62.7904138  18.8157171  18.3837529  63.1192185
  24.0130243   9.9836361  59.6529811  23.8969768  10.7344047  60.0821949
  24.8086129   9.7260314  59.9025898  24.1134832  10.0571208  59.7533903
  15.1939988  20.9618409  65.5679292  15.8377444  21.4031573  65.9575450
  15.5196244  20.1571835  65.4809551  15.3371817  20.9083604  65.6124769
  15.8960568  13.9730384  60.9399154  16.2176409  14.5135591  60.3360462
  16.5432665  13.4027155  61.0721443  16.0386623  13.9689559  60.8706189
  18.1350212  12.3616824  61.0113332  18.5743847  11.7533924  61.4568105
  17.9854874  11.9824197  60.2398797  18.1771677  12.2155295  60.9632499
  21.7359548  10.7144005  57.9644101  21.6510843  11.5704972  58.1093670
  22.2243931  10.4388329  58.6326260  21.7948445  10.8001326  58.0846183
  22.6677981   7.3328799  59.4641836  22.1389453   7.5488433  60.1239142
  23.1903001   8.0264938  59.3842806  22.6666434   7.4671936  59.5497435
  28.1226034  12.9075103  64.8374881  27.2923737  13.1185747  65.0008297
  28.0735287  12.0812158  64.5617164  27.9932770  12.8164710  64.8212246
  14.5577589  11.2292016  58.2649304  13.9734804  11.7342047  58.6715168
  14.1547684  11.0034403  57.5245896  14.4116893  11.2700264  58.2154329
  19.0154804   7.4757668  56.7418225  19.2550807   7.6835652  55.9293568
  19.3370645   6.6715177  56.8507169  19.0991961   7.3871769  56.6378778
  25.3790349  13.5774458  64.9739596  24.9425581  13.5811200  65.7298568
  25.0453265  14.2579957  64.5419174  25.2652969  13.6786914  65.0220429
  28.5134696  10.2955378  63.8659234  29.1751130   9.7346046  63.7655142
  27.8726108   9.8007409  64.1911925  28.5163563  10.1391787  63.8991574
  19.4011503  13.5925509  56.1740157  19.8162652  13.2610533  55.4824653
  18.5703433  13.3594411  56.0460294  19.3399512  13.5096765  56.0531004
  24.7999526  11.3120760  63.6071222  25.0355116  11.4565959  62.7798073
  24.9489090  12.0763168  64.0002736  24.8565330  11.4459815  63.5434826
  26.6289983  10.1522426  61.4440826  26.9598200  10.6850066  60.8380921
  27.2023071  10.2061314  62.1002777  26.7623662  10.2391995  61.4518608
  22.0944894   9.8436069  55.3601358  22.0125056   9.9138256  56.2256345
  22.7324614  10.4065813  55.1685099  22.1764731   9.9375040  55.4591308
  19.1985004   9.8656523  58.3709965  20.0125643  10.1571416  58.2592736
  19.1344145   9.2116385  57.7968258  19.3087743   9.8121718  58.2698802
  15.7095727   8.5580330  57.8357166  16.0940880   8.3388037  58.5873711
  15.4607347   9.3843276  57.9658243  15.7297800   8.6478476  57.9658243
  15.9918970  16.7785206  59.9089537  16.2817268  16.3874187  59.1848763
  16.7222450  16.9601911  60.3494812  16.1425854  16.7479020  59.8672344
  13.9324885  18.7552588  62.9749686  13.7125181  18.4649943  63.7676353
  13.7119407  18.0967544  62.4467599  13.8672479  18.6152297  63.0138595
  16.0992841  20.1281978  61.7580379  16.7516899  19.5958421  61.9871405
  15.4018450  19.7750631  62.1448253  16.0923559  19.9971501  61.8492546
  24.0932759  12.4486392  61.1011358  24.6590792  13.1079602  61.0169901
  23.4460663  12.7936091  61.5727760  24.0811516  12.5968334  61.1584114
  20.5639337  15.3925177  60.5248437  20.3226013  14.6593037  60.1175502
  20.7440670  15.9412034  59.8714771  20.5546961  15.3647568  60.3678660
  25.2895457  12.4992620  57.8936995  24.9102266  11.7129758  57.8866284
  24.6261703  13.0479477  57.7508639  25.1353932  12.4637444  57.8717791
  18.1142365  16.0506139  61.7325821  18.8792256  15.7815783  61.4108485
  18.0120455  15.5656150  62.4495884  18.2123861  15.9395704  61.7905648
  20.6361026  13.0818323  53.7125770  21.4034011  13.1418448  53.3031622
  20.1892335  12.5098764  53.2282089  20.6834453  13.0054899  53.5803480
  23.5355556  14.7438111  58.2288680  23.6175393  15.5505097  57.9050131
  24.0205298  14.7634070  58.9529454  23.6192714  14.8658774  58.2875579
  19.1713649   9.2932882  61.1980094  19.7129194   8.7903263  61.6618715
  19.4860208   9.2398077  60.3869579  19.2978046   9.2112303  61.1463906
  17.3400099  14.6850234  58.4820122  17.4092919  13.8264772  58.6213122
  18.1188554  14.9022115  58.1539147  17.4652949  14.5903098  58.4537279
  21.7307586  17.1087935  62.6956615  21.3387378  16.8054650  61.9779482
  21.8860658  17.9457025  62.5061569  21.6961176  17.1871772  62.5613112
  21.8947261  13.6737924  62.6362646  21.5361916  13.8452567  63.4126678
  21.4085972  14.1351129  62.0790644  21.7705958  13.7676895  62.6687915
  16.6835626   9.3537089  55.1762880  16.9728151  10.1301972  55.4506455
  16.7707425   8.8425821  55.8777380  16.7389883   9.3929008  55.3205378
  22.4997891  16.5123428  66.1286650  22.3017580  17.0014242  65.4342861
  21.8785602  16.7164669  66.7070783  22.3785456  16.6139966  66.1109873
  21.4767245   4.7470352  59.4316567  20.9490264   4.8299096  58.7422276
  21.9362953   5.4888224  59.4281212  21.4669096   4.8691015  59.3291262
  21.0304328  13.3173916  58.5626224  21.7538527  13.7832029  58.4190797
  20.5904919  13.3847526  57.8123821  21.0720020  13.3957753  58.4311006
  21.2908177  17.3794621  58.7224285  20.5737487  17.2055483  58.2571523
  21.9414915  17.1447193  58.1899771  21.2810028  17.3190413  58.5753503
  16.5721339  18.6156379  65.1514433  16.1581738  17.9530510  64.7618275
  17.2568714  18.7634238  64.6310127  16.6119711  18.5397038  65.0170930
  19.9386633  17.7746465  65.9038050  19.5402917  17.8848735  65.1358870
  19.3237853  17.9828531  66.4864610  19.7885523  17.8220033  65.8769349
  27.6728476  12.3498431  59.2881140  28.0562082  13.0989788  59.5179238
  26.8772589  12.5964251  59.0293130  27.6122258  12.4968125  59.2838714
  16.4843768   5.0217863  56.8641519  16.8642733   5.0397492  56.0792634
  15.7436364   5.4671852  56.7432367  16.4312605   5.0899638  56.7305088
  17.2828522  11.8595369  58.2550309  16.4739845  11.5362043  58.2083619
  17.7903431  11.1528592  58.1878558  17.2378189  11.7076686  58.2380604
  37.1646252  22.9269366  61.3811501  37.1340256  23.7814003  61.5529771
  37.7627600  22.6264659  61.9397645  37.2483410  23.0085863  61.4886304
  30.3645936  22.0145017  66.1364432  29.5083832  22.1753516  66.1873549
  30.4113590  21.1437081  66.1569493  30.2445048  21.9095819  66.1470498
  24.7487076  31.5507735  61.9001663  23.9969976  31.1723274  61.6717708
  25.1973088  31.5826169  61.1520474  24.7036743  31.4993343  61.7559166
  33.6739653  28.2831543  75.7424888  34.3806420  27.7883574  75.8711822
  33.8627588  28.7240625  75.0127546  33.8067559  28.2749893  75.6533933
  30.2012036  31.9733105  57.3287211  29.8663405  32.6510026  56.8931433
  30.7138906  31.5838416  56.7404082  30.2277617  32.0157683  57.1774002
  29.7416327  33.9247374  63.2698322  30.1255707  34.4934272  62.7303097
  29.6775469  33.1996884  62.7904138  29.7889755  33.9022837  63.1192185
  33.2097757  24.0737061  68.7796083  33.7553718  24.7522148  68.8390053
  33.1514634  23.9324522  67.9197665  33.2813672  24.1529063  68.6608144
  26.3271832  31.5626128  64.1664436  26.4282195  30.7526481  64.4761564
  25.7313578  31.4683074  63.5364114  26.2544371  31.4291156  64.1190674
  34.9862826  25.5021669  59.6529811  34.8702352  26.2529355  60.0821949
  35.7818713  25.2445622  59.9025898  35.0867416  25.5756515  59.7533903
  26.1672572  36.4803717  65.5679292  26.8110027  36.9216881  65.9575450
  26.4928827  35.6757143  65.4809551  26.3104401  36.4268911  65.6124769
  19.5236877  27.5846414  63.7916770  19.2887061  26.7514066  63.6849038
  19.6622517  27.8651080  62.9777971  19.5092539  27.5029917  63.6559125
  21.8226964  19.7532145  66.6901077  21.2031996  19.1624792  66.5211092
  21.7210828  20.3443580  66.0565400  21.7164640  19.7536227  66.5706067
  26.8693152  29.4915692  60.9399154  27.1908993  30.0320899  60.3360462
  27.5165248  28.9212463  61.0721443  27.0119207  29.4874867  60.8706189
  28.9194860  21.4931686  61.0233540  29.6175024  21.6719814  61.5155004
  29.2347192  20.9702026  60.4003930  29.0690197  21.4425459  61.0035551
  21.5496097  23.2984426  68.9344646  21.4254794  23.8846872  69.5694465
  22.2014382  22.8044622  69.2356921  21.6269746  23.3123231  69.0730576
  29.1082795  27.8802132  61.0113332  29.5476431  27.2719232  61.4568105
  28.9587458  27.5009505  60.2398797  29.1504261  27.7340603  60.9632499
  26.5754438  26.4746143  68.2132157  27.2203441  25.9818586  67.8943106
  26.8156215  26.6170930  69.0398236  26.7065023  26.4223586  68.2881691
  29.1140529  29.3201049  67.8639050  29.3963772  28.5252455  67.6425806
  29.8426690  29.7981637  67.8844111  29.2630093  29.2735646  67.8342065
  27.0921723  16.8624083  65.1054815  26.7625053  17.3135227  64.4358514
  26.4166725  16.7840246  65.6527821  26.9432160  16.9175218  65.0878038
  32.7092132  26.2329313  57.9644101  32.6243427  27.0890279  58.1093670
  33.1976515  25.9573637  58.6326260  32.7681029  26.3186634  58.0846183
  34.2998131  12.8509606  63.3504426  33.9851572  13.5413085  63.7824848
  33.7825073  12.7954388  62.6489926  34.1762602  12.9444495  63.3101375
  33.6410565  22.8514107  59.4641836  33.1122036  23.0673741  60.1239142
  34.1635585  23.5450245  59.3842806  33.6399018  22.9857244  59.5497435
  39.0958618  28.4260411  64.8374881  38.2656321  28.6371055  65.0008297
  39.0467870  27.5997466  64.5617164  38.9665353  28.3350018  64.8212246
  25.5310173  26.7477324  58.2649304  24.9467388  27.2527355  58.6715168
  25.1280268  26.5219711  57.5245896  25.3849476  26.7885572  58.2154329
  21.0854201  32.4632085  65.0672976  20.6021780  33.1882575  65.0432559
  21.8977520  32.7608215  65.1783133  21.1344949  32.6134439  65.0800255
  27.1568355  31.2564266  67.6722790  26.6395297  30.8971681  67.0684098
  27.8542747  30.7326440  67.6828856  27.1833936  31.1261954  67.5853049
  30.8131947  31.7059080  73.6338963  30.9015293  31.5185220  74.4817174
  31.2421660  31.0596509  73.2343810  30.8894050  31.5822087  73.7010715
  28.3802407  30.9890240  72.6156625  27.8173242  30.5762849  73.1396287
  29.1423431  30.9143145  73.0349769  28.4096856  30.9167640  72.7549626
  29.9887387  22.9942976  56.7418225  30.2283391  23.2020960  55.9293568
  30.3103228  22.1900485  56.8507169  30.0724545  22.9057077  56.6378778
  25.2977677  14.9236372  60.5877763  26.0523645  15.2914689  60.3494813
  25.1205212  15.2975926  61.3556942  25.3832156  15.0334559  60.6662651
  23.9398399  32.9788261  65.2193256  24.6418978  32.4640250  65.2766012
  23.8595882  33.3062412  66.0240131  24.0322159  32.9502487  65.3466048
  38.5912576  21.0730812  68.6325302  37.7540997  21.1432999  68.8672896
  38.5600807  21.0755307  67.7599604  38.4630858  21.0841039  68.5384850
  23.6534742  17.3306691  57.2855876  23.4710315  17.5478571  56.4596868
  24.5160355  17.4445703  57.3414490  23.7539331  17.3796588  57.1710363
  23.2649174  29.1694613  64.7278864  24.1038073  29.4017546  64.7752625
  23.2960943  28.2998924  64.6585899  23.3930892  29.0751559  64.7243508
  23.8901877  29.5895488  69.0292169  24.4300102  29.4466619  69.6995541
  23.2071823  29.9892239  69.3976195  23.8694031  29.6275159  69.1826591
  29.3334461  14.3333101  60.3204900  30.0620622  14.1549056  59.8743056
  29.4229354  15.1751181  60.5312078  29.4541123  14.4316980  60.2858417
  33.3142762  25.2686489  64.2237193  34.0700277  25.7018003  64.2626102
  33.4205086  24.6191258  64.7971830  33.4412932  25.2363972  64.3135219
  36.3522933  29.0959766  64.9739596  35.9158165  29.0996508  65.7298568
  36.0185848  29.7765265  64.5419174  36.2385553  29.1972222  65.0220429
  30.9252007  31.1368099  76.2982747  31.7092423  31.2498946  76.6638489
  30.7248601  30.3109236  76.4941433  31.0118032  31.0314818  76.3817133
  19.2939022  25.8095779  69.1826591  19.0277437  24.9934895  69.3417581
  19.3077586  25.8548934  68.3122106  19.2563744  25.6952684  69.0780073
  36.2720416  16.1373594  67.2169024  36.9146324  16.2071698  67.8030940
  36.5243437  15.4702817  66.7148566  36.4042548  16.0499942  67.2296304
  23.1996769  20.6080863  55.7978349  22.4854946  20.3219043  56.2100781
  23.6840738  20.9477489  56.4384736  23.1656132  20.6162513  55.9533984
  31.0822400  33.0478201  69.9449202  30.2837646  32.8077701  70.2023071
  31.5308411  33.0992594  70.6916250  31.0297011  33.0200592  70.0934127
  39.4867279  25.8140686  63.8659234  40.1483713  25.2531354  63.7655142
  38.8458691  25.3192716  64.1911925  39.4896147  25.6577095  63.8991574
  30.3744087  29.1110817  56.1740157  30.7895235  28.7795841  55.4824653
  29.5436017  28.8779719  56.0460294  30.3132096  29.0282073  56.0531004
  19.7032436  26.5954558  66.4638335  19.5208009  26.5701444  65.6110627
  20.4382105  27.0653496  66.5027244  19.7846500  26.6615920  66.3436253
  35.7732110  26.8306068  63.6071222  36.0087699  26.9751267  62.7798073
  35.9221674  27.5948476  64.0002736  35.8297913  26.9645123  63.5434826
  37.6022567  25.6707734  61.4440826  37.9330784  26.2035374  60.8380921
  38.1755655  25.7246622  62.1002777  37.7356246  25.7577303  61.4518608
  32.8154456  23.5172637  62.1264406  32.9101310  24.2561931  62.5804032
  32.1913299  23.0890112  62.5598971  32.7363486  23.5633957  62.2572554
  31.0706930  26.6958849  72.7754687  31.6445791  26.0586094  72.9303251
  30.9921733  26.6962932  71.9064345  31.1440164  26.6023961  72.6701098
  19.6703346  23.4748059  66.6137402  20.2476849  23.3384510  67.2529647
  18.9717408  23.0183843  66.8682986  19.6524367  23.3870325  66.7459691
  33.0677477  25.3621377  55.3601358  32.9857640  25.4323564  56.2256345
  33.7057198  25.9251121  55.1685099  33.1497314  25.4560348  55.4591308
  26.4270648  25.1282115  64.8275885  26.1689893  24.2953849  64.8007184
  26.4819131  25.3539728  63.9868385  26.3970426  25.0379886  64.6996021
  31.5071698  17.2310565  64.9279977  30.8028025  16.7419751  65.0863897
  31.5556673  17.2433040  64.0568422  31.4101750  17.1600213  64.8219317
  25.4005360  22.6819877  65.3140779  24.8254952  22.8412045  65.9504740
  25.0241037  22.0455286  64.8509230  25.2608173  22.6117690  65.3395338
  29.0678649  21.1543226  70.1733158  28.6793082  20.7297444  69.5185349
  28.4033347  21.4025376  70.6810185  28.9125577  21.1281947  70.1521026
  38.7101918  20.9118231  62.9480988  38.4538483  20.0998172  62.7578871
  39.5531232  20.9195798  62.7211175  38.7967944  20.7930228  62.8865805
  15.1462179  22.3259952  63.3285220  15.2322431  21.9491820  64.1098750
  15.7737977  21.9520397  62.8505178  15.2518730  22.2145434  63.3730697
  32.8905011  14.8517855  67.6857142  33.2715522  14.1696026  68.0725016
  32.0868295  14.5627457  67.5032807  32.8281472  14.7084904  67.7161198
  30.1717587  25.3841831  58.3709965  30.9858226  25.6756724  58.2592736
  30.1076729  24.7301693  57.7968258  30.2820326  25.3307026  58.2698802
  36.3927077  28.0667827  72.7839541  36.1565715  27.2355892  72.6651601
  37.0370306  28.0153434  73.3694385  36.4521748  27.9365515  72.8525434
  26.0425496  28.8563348  63.4982277  26.6799442  28.6175096  64.0434070
  26.4680567  29.0600507  62.7635438  26.2001662  28.8514359  63.4699434
  20.7338138  31.0951685  67.3816581  20.7742283  31.3666536  66.5536360
  21.2932662  31.6193593  67.7974369  20.8221484  31.2127440  67.3208469
  26.6828311  24.0765638  57.8357166  27.0673463  23.8573345  58.5873711
  26.4339931  24.9028583  57.9658243  26.7030383  24.1663784  57.9658243
  37.4163498  27.8512276  68.8467835  37.1109315  28.5840333  69.2081151
  36.6969714  27.4450205  68.5660621  37.2650840  27.8994009  68.8580972
  28.4246968  29.3335771  65.1776063  28.4985976  29.1710943  66.0317913
  29.2416474  29.5225961  64.9336545  28.5563326  29.3372513  65.2674089
  43.1165290  24.4905276  68.1736179  43.0489790  24.5101236  67.3038766
  43.1020953  25.3335604  68.3991850  43.1044047  24.6179011  68.0788656
  22.1852724  29.6793634  62.2070507  21.3590842  29.9255371  62.0804785
  22.2464715  29.6005715  63.0732565  22.0726891  29.7038583  62.3159451
  24.4028748  15.7462575  63.1665947  23.5351173  15.8185174  63.2323556
  24.6903952  16.5484654  63.3553922  24.3168496  15.8756722  63.2040713
  26.9651553  32.2970514  59.9089537  27.2549852  31.9059495  59.1848763
  27.6955034  32.4787219  60.3494812  27.1158437  32.2664328  59.8672344
  40.9023908  23.2649663  66.4482774  41.4531829  22.6317732  66.6879866
  40.8868023  23.7965055  67.1398278  40.9809104  23.2498611  66.5861632
  27.5546298  27.0988260  70.9942667  27.0557992  27.8104028  71.0727556
  28.3646523  27.4188927  70.9560830  27.6002405  27.2515109  70.9999236
  24.9057469  34.2737896  62.9749686  24.6857764  33.9835251  63.7676353
  24.6851991  33.6152851  62.4467599  24.8405063  34.1337605  63.0138595
  23.8174416  26.3611213  65.2405388  23.5287665  25.7348684  65.7751115
  24.6857764  26.3031500  65.3070068  23.9034668  26.2598757  65.3296343
  34.6052314  21.5045996  65.5587370  34.2617080  20.7836332  65.9094620
  34.7045356  21.2959847  64.7165728  34.5694357  21.3670200  65.4859050
  27.0725425  35.6467286  61.7580379  27.7249483  35.1143729  61.9871405
  26.3751033  35.2935939  62.1448253  27.0656142  35.5156809  61.8492546
  24.0206689  28.0006464  61.1647753  24.7752657  28.3819503  61.3783216
  23.4277302  28.4517608  61.6194450  24.0443403  28.1235291  61.2630631
  35.0665343  27.9671700  61.1011358  35.6323376  28.6264910  61.0169901
  34.4193246  28.3121398  61.5727760  35.0544099  28.1153642  61.1584114
  25.3404916  29.1715025  66.5387868  24.8185670  29.3115317  67.2239733
  25.7278936  28.4125690  66.7289986  25.3208617  29.0800549  66.6688945
  22.3296100  19.2220834  60.6082823  22.0420896  18.8522104  59.8714770
  23.0166568  19.6915689  60.3466528  22.3884997  19.2367803  60.4597899
  31.5371921  30.9110485  60.5248437  31.2958597  30.1778345  60.1175502
  31.7173254  31.4597342  59.8714771  31.5279545  30.8832876  60.3678660
  26.7671242  26.2019044  61.9369359  26.5714024  26.8093779  61.3429662
  26.9905587  25.5086988  61.4561033  26.7705883  26.1896570  61.7785440
  25.1649772  23.0873782  62.0550228  25.8872424  23.2514940  61.5954034
  24.6857764  23.8083447  61.9489568  25.2013502  23.2172012  61.9715842
  33.1243279  19.4237581  67.4346913  32.2854380  19.4498860  67.1985176
  33.1947646  20.0708317  68.0152259  33.0111673  19.5233707  67.4856030
  22.8157388  25.4931855  71.1604368  23.3278485  25.7716108  70.5113127
  22.5293731  26.2321149  71.5267181  22.8492251  25.6434208  71.1194246
  31.5712557  16.3222958  62.1674529  32.2738910  16.1230706  61.6894487
  31.3056746  15.5498900  62.4743372  31.6359190  16.1785924  62.1419970
  37.0000803  24.6305568  64.7208155  36.9134778  24.7860994  65.5742933
  36.5451283  25.2743643  64.3467560  36.9204060  24.7481323  64.7915261
  19.9024295  20.0002047  61.4568104  20.0040431  20.8028208  61.7849080
  20.6980181  19.7989382  61.1591185  20.0352200  20.0887945  61.4603460
  30.8726619  21.9516315  63.3433714  30.6261333  21.8712066  64.1770503
  31.2011742  21.1669783  63.1496242  30.8847863  21.8242580  63.4381237
  34.7674668  28.6599674  67.1320495  34.6289027  29.3580720  67.6369238
  33.9874666  28.5048331  66.7756677  34.6317895  28.7399841  67.1546769
  33.1052753  24.9596050  73.3842877  33.1000792  24.0875866  73.3885303
  33.8113747  25.1584219  72.9112333  33.2097757  24.8599924  73.3149912
  26.8323646  24.6873034  72.7556697  26.9767022  25.2674242  72.1199807
  27.1799295  25.0649330  73.4606552  26.9051108  24.8293738  72.7655692
  29.0043564  23.8863202  70.5381829  28.2566878  24.0794216  70.1330107
  29.1585089  23.0608421  70.3005950  28.9165991  23.7928313  70.4427235
  25.9051401  32.8775805  69.6217724  26.0540965  32.3178721  68.9691128
  26.6851403  32.9567807  70.0050243  26.0425495  32.8061371  69.5814673
  36.2628041  28.0177928  57.8936995  35.8834849  27.2315066  57.8866284
  35.5994286  28.5664785  57.7508639  36.1086516  27.9822752  57.8717791
  28.4304702  33.0490448  70.9002215  28.3548373  32.3799259  71.4553003
  28.3594561  33.7508236  71.4142881  28.4085309  33.0535356  71.0579063
  33.7172667  10.9603628  65.2971075  33.8356235  11.4180091  64.5638378
  33.5434842  10.1548889  65.0107293  33.7091838  10.9097400  65.1472009
  29.0874949  31.5691447  61.7325821  29.8524840  31.3001091  61.4108485
  28.9853039  31.0841457  62.4495884  29.1856444  31.4581012  61.7905648
  27.1227719  19.7715857  68.2719056  26.3323793  19.5907317  68.5936392
  27.5188341  18.9942809  68.2549351  27.0644595  19.6303317  68.3171605
  31.6093609  28.6003631  53.7125770  32.3766595  28.6603756  53.3031622
  31.1624918  28.0284072  53.2282089  31.6567037  28.5240207  53.5803480
  32.5071405  27.4058287  65.9978502  31.8316407  27.1743519  66.4991889
  32.5163781  26.7979470  65.3720607  32.4089910  27.2817212  65.9794655
  29.6365549  22.2476116  72.7542555  29.5724690  23.1086072  72.6262692
  29.7762737  21.9308109  71.9538107  29.6481019  22.3276282  72.6170768
  34.5088140  30.2623419  58.2288680  34.5907977  31.0690405  57.9050131
  34.9937882  30.2819378  58.9529454  34.5925297  30.3844081  58.2875579
  28.3184643  24.9408255  66.8958758  27.8946892  25.1412754  66.1597777
  28.1429498  24.0937103  67.0083058  28.2295523  24.8457036  66.8032448
  27.8196336  36.4558768  69.3580216  28.3092267  35.7569557  69.1755880
  27.2480569  36.1582638  69.9456273  27.8080866  36.3084992  69.4181256
  23.6067088  25.4360306  62.3286731  23.7631707  25.3707109  63.1842723
  23.9467681  26.2108859  62.1165410  23.6800323  25.5409505  62.4241325
  30.1446232  24.8118190  61.1980094  30.6861778  24.3088571  61.6618715
  30.4592791  24.7583385  60.3869579  30.2710630  24.7297611  61.1463906
  34.0163340  29.0220837  78.3107006  34.8298205  28.7505986  78.4712139
  33.8558306  28.7228377  77.5067202  34.1133288  28.9375763  78.2152412
  28.3132682  30.2035542  58.4820122  28.3825502  29.3450080  58.6213122
  29.0921137  30.4207422  58.1539147  28.4385532  30.1088406  58.4537279
  31.2935502  19.7054495  71.2502395  31.5077471  19.0665409  70.6965748
  30.6769401  20.1500318  70.8210256  31.2340831  19.6764638  71.1052826
  32.7040170  32.6273243  62.6956615  32.3119961  32.3239958  61.9779482
  32.8593242  33.4642333  62.5061569  32.6693760  32.7057080  62.5613112
  20.1801349  22.6195257  62.6447498  20.5600314  23.0379802  61.9807765
  19.6056714  23.2008713  62.9516341  20.1512674  22.7673116  62.5924239
  33.4574590  21.3143560  72.1885702  32.6451272  21.0069450  72.2698874
  33.9164524  20.8342560  72.7528414  33.4054975  21.1980052  72.2840296
  32.8679844  29.1923232  62.6362646  32.5094499  29.3637875  63.4126678
  32.3818555  29.6536437  62.0790644  32.7438541  29.2862203  62.6687915
  30.6850230  12.8154430  66.2389737  29.8143788  12.7893151  66.1923047
  30.9390572  12.6431622  65.4215583  30.5943791  12.7864574  66.1109874
  27.6568210  24.8722397  55.1762880  27.9460735  25.6487280  55.4506455
  27.7440009  24.3611129  55.8777380  27.7122466  24.9114315  55.3205378
  34.0284584  30.0827128  73.5829847  34.6664304  29.5887323  73.2492303
  33.3858675  30.0104528  72.9982074  34.0278810  29.9986136  73.4472202
  35.7541584  21.9316274  68.1495762  35.3269192  21.8442622  67.3943862
  35.1167637  22.0394049  68.7350607  35.5971191  21.9348933  68.1241204
  34.0838840  30.7746936  70.2235204  34.8731219  30.4236001  70.3437285
  34.2582438  31.5883324  69.9611837  34.2259122  30.8432793  70.2023072
  23.8232151  24.1855662  67.2762992  22.9820157  24.0859536  67.4841886
  24.0322159  24.9551142  67.6277313  23.7296843  24.2847705  67.3590307
  21.3007718  21.8075199  65.1047743  20.9064416  21.8818210  64.3297853
  20.7447835  22.1933145  65.6556105  21.1610530  21.8756973  65.0715403
  32.9372665  14.7856493  64.7851622  33.1422258  14.7178801  65.6308619
  32.6099089  15.5915314  64.7172799  32.9187912  14.8942433  64.9011277
  27.6348816  22.1137061  66.5260590  27.3311953  21.5593049  67.1270998
  26.9328236  22.2929271  66.0388624  27.4865026  22.0581843  66.5430296
  26.6914913  19.4237581  61.0905292  26.9674647  18.7056493  60.6782859
  27.2913582  20.0222501  60.8826398  26.8208177  19.4057951  60.9986053
  25.6967167  29.3286782  71.2332688  25.5887522  29.3388844  72.0994746
  25.9062948  30.1541562  71.0437641  25.7117278  29.4527856  71.3336779
  36.1906352  15.3388257  64.2654387  35.5780666  15.8258659  64.6508119
  36.2870527  14.6631748  64.8092039  36.1144250  15.3106566  64.4033246
  30.1925433  17.0951098  59.3651887  30.6469180  17.2661658  60.0899731
  30.6665479  16.4819209  58.9649663  30.3293753  17.0301983  59.4125648
  23.7140959  26.5799424  68.6954625  23.1228892  27.2208922  68.6657640
  24.4761982  27.0037041  68.6685925  23.7389219  26.7375262  68.6869773
  39.8331380  26.4105194  69.6931904  39.8914504  26.8591842  70.4391880
  39.1997848  26.8204006  69.2561984  39.7482675  26.5378928  69.7384452
  33.4730475  32.0308736  66.1286650  33.2750164  32.5199550  65.4342861
  32.8518186  32.2349977  66.7070783  33.3518039  32.1325274  66.1109873
  27.5338453  23.7993632  60.4696894  28.2780498  24.1867909  60.7079844
  27.6799149  22.9551058  60.6337382  27.6649038  23.7324105  60.5290864
  29.4518029  15.5943891  65.5028755  28.6054074  15.7666699  65.3770105
  29.4489161  14.7893235  65.8394584  29.3265179  15.5004920  65.5339882
  30.5216329  19.3719106  66.3690813  30.0476283  18.8460868  66.8796124
  30.8934465  18.8248579  65.8005675  30.5066218  19.2135102  66.3605961
  36.7853060  24.4321481  67.7797594  36.5451283  23.5927897  67.7840020
  37.2645067  24.5121648  68.5038367  36.8205243  24.3202881  67.8872396
  32.4499829  20.2655660  59.4316567  31.9222847  20.3484404  58.7422276
  32.9095537  21.0073532  59.4281212  32.4401679  20.3876323  59.3291262
  38.7858247  21.2122939  65.7326853  38.5468017  21.1718773  64.8947638
  38.9492148  22.0594091  65.8592574  38.7748550  21.3315024  65.6280335
  35.3904277  25.5972888  71.6631898  36.1138476  25.1445414  71.4842918
  35.1254239  25.8777554  70.8804226  35.4585550  25.5723856  71.5210613
  24.2591145  20.1933061  68.3984777  23.6344215  20.2051453  67.7910730
  23.9236740  20.6693237  69.0476018  24.1176637  20.2651578  68.4041346
  24.4432894  18.5358180  54.4557462  24.0945698  19.1877905  54.9189012
  23.9629340  18.5215293  53.7281334  24.3203138  18.6301233  54.4168554
  20.9716821  28.2533521  69.8388542  20.4416745  27.5625960  69.8883516
  21.2441914  28.2443707  69.0101250  20.9341543  28.1500653  69.7235958
  32.0036911  28.8359224  58.5626224  32.7271110  29.3017337  58.4190797
  31.5637502  28.9032833  57.8123821  32.0452604  28.9143061  58.4311006
  31.1723066  25.6956766  69.8126913  30.5580059  25.1514816  70.1075548
  31.6890351  25.1821003  69.3332729  31.1578729  25.5393175  69.7851142
  30.4119364  26.7661036  67.5471212  29.9846972  26.1410755  67.1136647
  30.4044308  26.4835958  68.3730219  30.3478505  26.6313817  67.6051039
  28.7405073  17.6429791  67.7613746  28.7647560  17.1089903  67.0726526
  28.9916547  17.1347099  68.4239336  28.7814992  17.4890695  67.7578390
  16.2512663  24.9261286  67.1956890  16.1456112  24.8808130  66.3308974
  15.5012883  25.2715066  67.4771175  16.1248266  24.9702194  67.1094220
  25.0206395  16.3700609  67.1419490  25.0604767  16.8709815  67.8554198
  24.1956060  16.4611003  66.8725413  24.9045921  16.4582425  67.2070028
  26.4420759  22.8861119  69.4393389  25.6112689  23.0534937  69.2328637
  26.3872276  22.5097070  70.2242274  26.3110174  22.8550850  69.5241917
  24.8156803  21.1616710  59.9683507  24.9559764  21.6589175  60.6712148
  25.3139335  20.4603005  60.1097721  24.9097884  21.1318689  60.0935086
  24.8457025  22.0283821  57.2976084  25.4802105  22.6244246  57.2325545
  24.9282636  21.7287279  58.1121954  24.9513576  22.0724729  57.4079170
  37.8239591  24.5599299  70.1662448  38.4157431  25.1996549  70.1980646
  38.2598585  23.8622335  70.4554515  37.9758022  24.5517649  70.2143280
  26.4236008  17.9597797  57.2721526  26.7451849  17.4800879  56.6180788
  26.6862952  18.7697443  57.0812337  26.5102033  18.0087695  57.1477018
  29.6532981  28.9816671  70.7920342  29.1458072  29.5352518  71.2360972
  29.3559627  29.0424961  69.9739116  29.5337866  29.0722982  70.7368798
  31.8195163  17.3469991  69.6345005  32.2450234  16.8942517  69.0228531
  31.2052156  16.7930061  69.9109792  31.7923808  17.1983967  69.5850030
  21.3510013  24.2251662  60.5665630  21.8602242  24.8216170  60.9476935
  21.8244285  23.9577636  59.8842049  21.4953389  24.2737478  60.5220152
  32.2640761  32.8979929  58.7224285  31.5470071  32.7240791  58.2571523
  32.9147499  32.6632501  58.1899771  32.2542611  32.8375721  58.5753503
  30.2589386  13.8185090  63.0435582  29.6157704  13.6682737  63.6120720
  29.9188793  13.5727436  62.2784686  30.1134463  13.7597213  63.0138597
  34.8488732  21.7744517  62.4665590  34.1779922  22.3174220  62.3378656
  35.5428482  22.2439373  62.2247285  34.8517600  21.9242789  62.4121118
  28.8975466  33.9141229  67.6977349  28.6741120  33.1560059  68.0661375
  28.4085309  33.9439251  66.9757788  28.7918915  33.8063454  67.6454090
  35.0116860  18.2300401  65.3755964  35.3644470  17.8030124  66.0501762
  34.1531661  18.1451244  65.5057040  34.9366304  18.1545142  65.4950974
  23.7100545  20.8607921  63.4338810  22.9912534  21.2772053  63.7011674
  24.0812907  21.4262159  62.8830448  23.6592476  21.0057202  63.3921617
  33.0100125  21.4935770  69.3240806  32.9898053  21.3119065  70.1775585
  33.0579326  22.3647788  69.3000389  33.0134767  21.5952308  69.4464101
  30.9546455  28.0822962  75.2489282  30.9142310  27.4372638  74.6634438
  31.7669774  28.0259579  75.5614694  31.0689609  27.9781928  75.2086232
  27.5453923  34.1341687  65.1514433  27.1314322  33.4715818  64.7618275
  28.2301297  34.2819546  64.6310127  27.5852295  34.0582346  65.0170930
  30.9119217  33.2931773  65.9038050  30.5135500  33.4034043  65.1358870
  30.2970437  33.5013839  66.4864610  30.7618106  33.3405341  65.8769349
  29.4847119  19.9005921  58.7712190  28.8911958  20.2222917  58.2196757
  29.5222397  19.0547016  58.5633296  29.4021508  19.8230249  58.6594961
  36.4440920  13.3518813  66.3040276  35.9371784  12.6447952  66.2361454
  37.2408353  13.0212002  66.4341353  36.4868159  13.1991964  66.3139271
  32.3604936  19.8585425  62.2013940  32.1318629  19.8818126  61.3592298
  32.6203012  19.0342892  62.3208950  32.3651124  19.7401505  62.0939138
  25.4149698  18.3961971  63.4968135  25.8907064  18.7579051  62.8618317
  24.9138298  19.0518439  63.7768278  25.4115057  18.5456160  63.4444876
  38.6461060  27.8683739  59.2881140  39.0294665  28.6175096  59.5179238
  37.8505173  28.1149559  59.0293130  38.5854842  28.0153433  59.2838714
  27.4576351  20.5403171  56.8641519  27.8375316  20.5582800  56.0792634
  26.7168947  20.9857160  56.7432367  27.4045189  20.6084946  56.7305088
  35.0861642  18.8485362  62.4517098  35.0855868  18.6934019  63.3101374
  34.8817822  19.6948349  62.3958484  35.0561420  18.9505983  62.5705038
  17.1478913  22.2725147  66.8675915  16.9700674  21.8201756  67.5930830
  16.8597935  23.0751308  67.0514392  17.0791866  22.3247705  67.0019418
  32.8102494  23.5282864  66.1053305  33.3056159  22.8105859  66.0657325
  32.0002270  23.2253662  65.9907792  32.7646387  23.3780510  66.0827031
  28.2561105  27.3780677  58.2550309  27.4472428  27.0547351  58.2083619
  28.7636014  26.6713899  58.1878558  28.2110772  27.2261994  58.2380604
  18.8851383  24.8052870  63.9797674  18.0196902  24.7938561  63.8680445
  18.9850199  24.6183093  64.8268813  18.7725550  24.7758932  64.0886618
  34.8754313  26.2786552  68.7930434  35.3009384  25.7560973  68.2400859
  34.5111233  26.8767389  68.2719057  34.8840915  26.2896779  68.6339444
  24.5108393  34.5750769  67.5527779  24.8254952  35.3887158  67.5605561
  24.9201806  34.1900988  68.2209938  24.6176491  34.6379471  67.6531871
  31.4632912  29.9920816  65.1231591  31.9344090  30.7061078  65.2921576
  31.7993091  29.3919566  65.6591461  31.5828027  30.0092280  65.2263967
  33.5509897  31.6022129  77.3023663  33.6606862  30.8130690  77.6580411
  33.8800793  31.5128065  76.4998001  33.6162303  31.4727982  77.2366054
  32.1006859  29.7838750  71.8859284  31.5527804  29.1596634  71.6179349
  32.5619887  29.9733022  71.1703363  32.0874068  29.7197800  71.7409715
  34.9100723  17.8524104  69.2710476  34.3263712  18.3533311  68.8588044
  35.2305017  17.3453661  68.6374799  34.8713898  17.8515940  69.1168983
  27.4495522  16.7664699  59.5469151  28.2711216  16.9363012  59.3050846
  26.9865173  16.9211960  58.8235449  27.5026684  16.8146432  59.4040795
  21.8521413  28.5223878  67.2006388  22.4566270  28.4819712  66.5720208
  21.6448725  29.3695030  67.2310444  21.9110310  28.6411880  67.1122504
  31.6665185  30.7889823  68.4168625  32.4863559  30.6452789  68.6784920
  31.3859262  31.4136022  68.9585063  31.7461928  30.8600175  68.5356564
  17.0872695  27.5058495  67.0705311  16.9896973  26.6954767  67.3795367
  17.8701565  27.4850288  66.6851579  17.1888831  27.3825585  67.0592174
  41.3378520  37.5330325  66.1364432  40.4816416  37.6938824  66.1873549
  41.3846174  36.6622389  66.1569493  41.2177631  37.4281127  66.1470498
  44.6472237  43.8016851  75.7424888  45.3539004  43.3068882  75.8711822
  44.8360172  44.2425933  75.0127546  44.7800142  43.7935201  75.6533933
  44.1830341  39.5922369  68.7796083  44.7286301  40.2707456  68.8390053
  44.1247217  39.4509830  67.9197665  44.2546255  39.6714371  68.6608144
  37.3004416  47.0811435  64.1664436  37.4014779  46.2711789  64.4761564
  36.7046161  46.9868382  63.5364114  37.2276955  46.9476464  64.1190674
  37.1405156  51.9989025  65.5679292  37.7842611  52.4402189  65.9575450
  37.4661411  51.1942451  65.4809551  37.2836984  51.9454219  65.6124769
  30.4969460  43.1031722  63.7916770  30.2619645  42.2699374  63.6849038
  30.6355101  43.3836388  62.9777971  30.4825123  43.0215225  63.6559125
  32.7959548  35.2717453  66.6901077  32.1764579  34.6810100  66.5211092
  32.6943411  35.8628888  66.0565400  32.6897223  35.2721535  66.5706067
  39.8927443  37.0116994  61.0233540  40.5907608  37.1905122  61.5155004
  40.2079776  36.4887334  60.4003930  40.0422780  36.9610767  61.0035551
  32.5228681  38.8169734  68.9344646  32.3987378  39.4032180  69.5694465
  33.1746965  38.3229930  69.2356921  32.6002330  38.8308539  69.0730576
  37.5487022  41.9931451  68.2132157  38.1936024  41.5003894  67.8943106
  37.7888799  42.1356238  69.0398236  37.6797607  41.9408893  68.2881691
  40.0873113  44.8386357  67.8639050  40.3696356  44.0437763  67.6425806
  40.8159273  45.3166945  67.8844111  40.2362677  44.7920954  67.8342065
  38.0654307  32.3809391  65.1054815  37.7357637  32.8320535  64.4358514
  37.3899309  32.3025554  65.6527821  37.9164743  32.4360526  65.0878038
  45.2730715  28.3694914  63.3504426  44.9584156  29.0598393  63.7824848
  44.7557656  28.3139696  62.6489926  45.1495185  28.4629803  63.3101375
  36.5042756  42.2662632  58.2649304  35.9199971  42.7712663  58.6715168
  36.1012851  42.0405019  57.5245896  36.3582060  42.3070880  58.2154329
  32.0586785  47.9817393  65.0672976  31.5754363  48.7067882  65.0432559
  32.8710103  48.2793523  65.1783133  32.1077533  48.1319747  65.0800255
  38.1300939  46.7749574  67.6722790  37.6127881  46.4156989  67.0684098
  38.8275330  46.2511748  67.6828856  38.1566520  46.6447261  67.5853049
  41.7864531  47.2244388  73.6338963  41.8747877  47.0370528  74.4817174
  42.2154243  46.5781817  73.2343810  41.8626633  47.1007395  73.7010715
  39.3534991  46.5075548  72.6156625  38.7905826  46.0948157  73.1396287
  40.1156014  46.4328453  73.0349769  39.3829439  46.4352948  72.7549626
  36.2710261  30.4421679  60.5877763  37.0256229  30.8099997  60.3494813
  36.0937796  30.8161234  61.3556942  36.3564739  30.5519867  60.6662651
  34.9130982  48.4973569  65.2193256  35.6151561  47.9825558  65.2766012
  34.8328465  48.8247720  66.0240131  35.0054743  48.4687795  65.3466048
  49.5645160  36.5916120  68.6325302  48.7273581  36.6618307  68.8672896
  49.5333391  36.5940615  67.7599604  49.4363442  36.6026347  68.5384850
  35.9609889  38.7349156  74.3473671  36.1330392  38.6255050  75.1958952
  36.4979246  39.3803561  74.1104863  36.0654893  38.8141157  74.4378767
  34.6267326  32.8491998  57.2855876  34.4442899  33.0663879  56.4596868
  35.4892939  32.9631011  57.3414490  34.7271915  32.8981896  57.1710363
  34.2381758  44.6879921  64.7278864  35.0770657  44.9202853  64.7752625
  34.2693527  43.8184232  64.6585899  34.3663475  44.5936867  64.7243508
  34.8634461  45.1080796  69.0292169  35.4032686  44.9651927  69.6995541
  34.1804407  45.5077547  69.3976195  34.8426614  45.1460467  69.1826591
  40.3067045  29.8518409  60.3204900  41.0353205  29.6734364  59.8743056
  40.3961938  30.6936489  60.5312078  40.4273707  29.9502288  60.2858417
  44.2875345  40.7871797  64.2237193  45.0432860  41.2203311  64.2626102
  44.3937670  40.1376566  64.7971830  44.4145516  40.7549280  64.3135219
  47.3255517  44.6145074  64.9739596  46.8890748  44.6181816  65.7298568
  46.9918432  45.2950573  64.5419174  47.2118137  44.7157530  65.0220429
  41.8984590  46.6553407  76.2982747  42.6825007  46.7684254  76.6638489
  41.6981185  45.8294544  76.4941433  41.9850616  46.5500126  76.3817133
  30.2671606  41.3281087  69.1826591  30.0010021  40.5120203  69.3417581
  30.2810170  41.3734242  68.3122106  30.2296328  41.2137991  69.0780073
  47.2452999  31.6558902  67.2169024  47.8878908  31.7257006  67.8030940
  47.4976020  30.9888125  66.7148566  47.3775132  31.5685250  67.2296304
  35.0170212  34.8659465  71.8293598  34.3242009  34.3956445  72.0754330
  35.6330539  34.6397769  72.4035306  35.0054742  34.7626597  71.9502751
  42.0554984  48.5663509  69.9449202  41.2570229  48.3263009  70.2023071
  42.5040995  48.6177902  70.6916250  42.0029595  48.5385900  70.0934127
  30.6765019  42.1139866  66.4638335  30.4940593  42.0886752  65.6110627
  31.4114688  42.5838804  66.5027244  30.7579083  42.1801228  66.3436253
  46.7464693  42.3491376  63.6071222  46.9820283  42.4936575  62.7798073
  46.8954257  43.1133784  64.0002736  46.8030497  42.4830430  63.5434826
  33.7410771  38.8324869  72.9720444  34.4650743  38.8177900  73.4585338
  33.8426907  39.5420224  72.4742412  33.8628980  38.9349572  72.9699230
  41.1155720  42.3123954  77.8369391  40.3228701  42.6267465  78.0222010
  41.2304648  42.5275422  76.9990175  41.0151131  42.3907790  77.7407725
  42.0439513  42.2144157  72.7754687  42.6178375  41.5771402  72.9303251
  41.9654317  42.2148240  71.9064345  42.1172748  42.1209269  72.6701098
  30.6435930  38.9933367  66.6137402  31.2209432  38.8569818  67.2529647
  29.9449991  38.5369151  66.8682986  30.6256951  38.9055633  66.7459691
  37.4003232  40.6467422  64.8275885  37.1422476  39.8139157  64.8007184
  37.4551715  40.8725035  63.9868385  37.3703010  40.5565194  64.6996021
  42.4804282  32.7495873  64.9279977  41.7760609  32.2605059  65.0863897
  42.5289256  32.7618348  64.0568422  42.3834334  32.6785521  64.8219317
  36.3737944  38.2005185  65.3140779  35.7987535  38.3597353  65.9504740
  35.9973620  37.5640594  64.8509230  36.2340756  38.1302998  65.3395338
  40.0411233  36.6728534  70.1733158  39.6525665  36.2482752  69.5185349
  39.3765931  36.9210684  70.6810185  39.8858160  36.6467255  70.1521026
  49.6834502  36.4303539  62.9480988  49.4271067  35.6183480  62.7578871
  50.5263816  36.4381106  62.7211175  49.7700527  36.3115536  62.8865805
  26.1194763  37.8445260  63.3285220  26.2055015  37.4677128  64.1098750
  26.7470560  37.4705705  62.8505178  26.2251314  37.7330742  63.3730697
  43.8637594  30.3703163  67.6857142  44.2448106  29.6881334  68.0725016
  43.0600878  30.0812765  67.5032807  43.8014056  30.2270211  67.7161198
  47.3659661  43.5853135  72.7839541  47.1298298  42.7541200  72.6651601
  48.0102890  43.5338742  73.3694385  47.4254332  43.4550823  72.8525434
  37.0158079  44.3748656  63.4982277  37.6532026  44.1360404  64.0434070
  37.4413151  44.5785815  62.7635438  37.1734245  44.3699666  63.4699434
  31.7070722  46.6136993  67.3816581  31.7474867  46.8851844  66.5536360
  32.2665246  47.1378901  67.7974369  31.7954067  46.7312748  67.3208469
  37.6560894  39.5950946  57.8357166  38.0406047  39.3758653  58.5873711
  37.4072514  40.4213891  57.9658243  37.6762967  39.6849092  57.9658243
  37.8229435  32.8757361  77.5519751  37.5082876  33.6456924  77.2889313
  37.5019367  32.3127617  76.9671978  37.7288354  32.9067630  77.4261101
  48.3896082  43.3697584  68.8467835  48.0841899  44.1025641  69.2081151
  47.6702297  42.9635513  68.5660621  48.2383424  43.4179317  68.8580972
  39.3979551  44.8521079  65.1776063  39.4718559  44.6896251  66.0317913
  40.2149057  45.0411268  64.9336545  39.5295910  44.8557821  65.2674089
  54.0897874  40.0090584  68.1736179  54.0222374  40.0286543  67.3038766
  54.0753536  40.8520912  68.3991850  54.0776630  40.1364319  68.0788656
  33.1585308  45.1978942  62.2070507  32.3323425  45.4440679  62.0804785
  33.2197299  45.1191023  63.0732565  33.0459475  45.2223891  62.3159451
  35.3761332  31.2647883  63.1665947  34.5083757  31.3370482  63.2323556
  35.6636536  32.0669962  63.3553922  35.2901080  31.3942030  63.2040713
  44.4994220  31.4125742  71.4977269  45.2447812  31.2235552  71.0840694
  44.0831525  31.9383980  70.9391125  44.5479195  31.4627887  71.3541842
  51.8756491  38.7834971  66.4482774  52.4264413  38.1503040  66.6879866
  51.8600607  39.3150363  67.1398278  51.9541687  38.7683919  66.5861632
  38.5278882  42.6173568  70.9942667  38.0290576  43.3289336  71.0727556
  39.3379106  42.9374234  70.9560830  38.5734989  42.7700416  70.9999236
  35.8790052  49.7923204  62.9749686  35.6590348  49.5020559  63.7676353
  35.6584574  49.1338159  62.4467599  35.8137647  49.6522913  63.0138595
  34.7907000  41.8796521  65.2405388  34.5020248  41.2533992  65.7751115
  35.6590348  41.8216808  65.3070068  34.8767251  41.7784065  65.3296343
  45.5784897  37.0231304  65.5587370  45.2349663  36.3021639  65.9094620
  45.6777940  36.8145155  64.7165728  45.5426940  36.8855507  65.4859050
  38.0458008  51.1652594  61.7580379  38.6982066  50.6329037  61.9871405
  37.3483617  50.8121247  62.1448253  38.0388726  51.0342117  61.8492546
  34.9939273  43.5191772  61.1647753  35.7485241  43.9004811  61.3783216
  34.4009886  43.9702916  61.6194450  35.0175987  43.6420599  61.2630631
  37.4545940  35.4754612  76.2904965  36.6445716  35.7812392  76.1794808
  37.9320627  36.1960195  76.4057549  37.4049419  35.6269213  76.2912036
  36.3137500  44.6900333  66.5387868  35.7918253  44.8300625  67.2239733
  36.7011520  43.9310998  66.7289986  36.2941200  44.5985857  66.6688945
  33.3028684  34.7406142  60.6082823  33.0153479  34.3707412  59.8714770
  33.9899152  35.2100997  60.3466528  33.3617581  34.7553111  60.4597899
  37.7403825  41.7204352  61.9369359  37.5446608  42.3279087  61.3429662
  37.9638171  41.0272296  61.4561033  37.7438466  41.7081878  61.7785440
  36.1382355  38.6059090  62.0550228  36.8605007  38.7700248  61.5954034
  35.6590348  39.3268755  61.9489568  36.1746086  38.7357320  61.9715842
  44.0975863  34.9422889  67.4346913  43.2586963  34.9684168  67.1985176
  44.1680230  35.5893624  68.0152259  43.9844256  35.0419015  67.4856030
  33.7889972  41.0117163  71.1604368  34.3011069  41.2901416  70.5113127
  33.5026314  41.7506457  71.5267181  33.8224835  41.1619516  71.1194246
  42.5445141  31.8408266  62.1674529  43.2471494  31.6416014  61.6894487
  42.2789330  31.0684208  62.4743372  42.6091773  31.6971232  62.1419970
  47.9733387  40.1490876  64.7208155  47.8867361  40.3046302  65.5742933
  47.5183867  40.7928951  64.3467560  47.8936643  40.2666631  64.7915261
  30.8756878  35.5187354  61.4568104  30.9773015  36.3213516  61.7849080
  31.6712765  35.3174690  61.1591185  31.0084784  35.6073253  61.4603460
  37.3073697  33.1043551  71.2205409  37.1156894  33.1198686  72.0704833
  38.1572293  33.3007225  71.1972064  37.4049419  33.1357902  71.3428704
  31.6920610  35.6334533  69.1989226  31.5506102  34.7818473  69.3233734
  31.9761174  35.6763193  68.3751432  31.7128456  35.5134283  69.0956850
  41.8459203  37.4701623  63.3433714  41.5993917  37.3897374  64.1770503
  42.1744326  36.6855091  63.1496242  41.8580446  37.3427888  63.4381237
  45.7407251  44.1784982  67.1320495  45.6021611  44.8766028  67.6369238
  44.9607249  44.0233639  66.7756677  45.6050478  44.2585149  67.1546769
  44.0785337  40.4781358  73.3842877  44.0733375  39.6061174  73.3885303
  44.7846330  40.6769527  72.9112333  44.1830341  40.3785232  73.3149912
  37.8056230  40.2058341  72.7556697  37.9499606  40.7859550  72.1199807
  38.1531878  40.5834638  73.4606552  37.8783691  40.3479045  72.7655692
  39.9776147  39.4048510  70.5381829  39.2299461  39.5979524  70.1330107
  40.1317673  38.5793729  70.3005950  39.8898575  39.3113621  70.4427235
  36.8783985  48.3961113  69.6217724  37.0273549  47.8364029  68.9691128
  37.6583987  48.4753115  70.0050243  37.0158079  48.3246679  69.5814673
  39.4037286  48.5675756  70.9002215  39.3280957  47.8984567  71.4553003
  39.3327145  49.2693544  71.4142881  39.3817892  48.5720663  71.0579063
  40.2177924  33.2999061  71.4277232  40.6750538  34.0323035  71.5550025
  40.2934253  32.8765526  72.1864488  40.2968894  33.3456299  71.5578309
  32.4610916  33.5464880  72.5166676  31.9253105  32.9345238  72.8327443
  32.5228680  34.1213016  73.1700343  32.3906548  33.5411808  72.6602103
  44.6905250  26.4788936  65.2971075  44.8088818  26.9365399  64.5638378
  44.5167426  25.6734197  65.0107293  44.6824421  26.4282708  65.1472009
  38.0960302  35.2901164  68.2719056  37.3056377  35.1092625  68.5936392
  38.4920925  34.5128117  68.2549351  38.0377178  35.1488625  68.3171605
  43.4803989  42.9243595  65.9978502  42.8048990  42.6928827  66.4991889
  43.4896365  42.3164778  65.3720607  43.3822493  42.8002520  65.9794655
  40.6098133  37.7661424  72.7542555  40.5457274  38.6271380  72.6262692
  40.7495320  37.4493417  71.9538107  40.6213603  37.8461590  72.6170768
  39.2917226  40.4593563  66.8958758  38.8679476  40.6598062  66.1597777
  39.1162082  39.6122411  67.0083058  39.2028107  40.3642344  66.8032448
  38.7928920  51.9744076  69.3580216  39.2824850  51.2754865  69.1755880
  38.2213152  51.6767946  69.9456273  38.7813450  51.8270300  69.4181256
  34.5799671  40.9545614  62.3286731  34.7364291  40.8892417  63.1842723
  34.9200264  41.7294167  62.1165410  34.6532906  41.0594813  62.4241325
  44.9895923  44.5406145  78.3107006  45.8030789  44.2691294  78.4712139
  44.8290890  44.2413685  77.5067202  45.0865872  44.4561071  78.2152412
  42.2668085  35.2239802  71.2502395  42.4810055  34.5850717  70.6965748
  41.6501985  35.6685626  70.8210256  42.2073415  35.1949946  71.1052826
  43.6772753  48.1458551  62.6956615  43.2852545  47.8425266  61.9779482
  43.8325826  48.9827641  62.5061569  43.6426343  48.2242387  62.5613112
  31.1533933  38.1380565  62.6447498  31.5332898  38.5565110  61.9807765
  30.5789298  38.7194021  62.9516341  31.1245258  38.2858424  62.5924239
  44.4307173  36.8328868  72.1885702  43.6183855  36.5254758  72.2698874
  44.8897108  36.3527868  72.7528414  44.3787558  36.7165360  72.2840296
  43.8412428  44.7108540  62.6362646  43.4827083  44.8823182  63.4126678
  43.3551139  45.1721745  62.0790644  43.7171125  44.8047511  62.6687915
  41.6582814  28.3339738  66.2389737  40.7876372  28.3078459  66.1923047
  41.9123155  28.1616930  65.4215583  41.5676374  28.3049882  66.1109874
  41.5260681  38.2388939  76.9714404  41.9960312  38.8631055  77.3582278
  41.5722561  37.5705915  77.5307619  41.6028557  38.2323619  77.1114475
  38.6831955  30.3445967  67.6963208  38.1670443  29.6526158  67.8214787
  38.1225883  31.0116744  67.6425806  38.5238468  30.3409224  67.7069274
  40.7524188  30.8838927  69.5256060  40.3655941  30.9087958  70.3069590
  40.2657125  30.3180605  69.0730577  40.6236697  30.8034677  69.5743964
  45.0017167  45.6012436  73.5829847  45.6396888  45.1072631  73.2492303
  44.3591259  45.5289836  72.9982074  45.0011394  45.5171444  73.4472202
  46.7274167  37.4501582  68.1495762  46.3001776  37.3627930  67.3943862
  46.0900220  37.5579357  68.7350607  46.5703775  37.4534241  68.1241204
  40.4181330  27.7705912  71.8166320  41.0474448  28.3066212  71.5387391
  40.5867192  27.6783271  72.6679886  40.5359124  27.8367274  71.9014848
  40.2195245  32.5577107  74.0892732  41.0468674  32.2862256  74.1451346
  40.2403091  33.3537948  74.4456550  40.3448095  32.6356861  74.1507915
  45.0571424  46.2932244  70.2235204  45.8463802  45.9421309  70.3437285
  45.2315022  47.1068632  69.9611837  45.1991706  46.3618101  70.2023072
  34.7964734  39.7040970  67.2762992  33.9552741  39.6044844  67.4841886
  35.0054742  40.4736450  67.6277313  34.7029427  39.8033013  67.3590307
  32.2740301  37.3260507  65.1047743  31.8796999  37.4003518  64.3297853
  31.7180418  37.7118453  65.6556105  32.1343114  37.3942281  65.0715403
  38.6081399  37.6322369  66.5260590  38.3044537  37.0778357  67.1270998
  37.9060820  37.8114579  66.0388624  38.4597609  37.5767151  66.5430296
  37.6647496  34.9422889  61.0905292  37.9407231  34.2241801  60.6782859
  38.2646166  35.5407808  60.8826398  37.7940761  34.9243259  60.9986053
  36.6699750  44.8472089  71.2332688  36.5620105  44.8574152  72.0994746
  36.8795532  45.6726870  71.0437641  36.6849861  44.9713164  71.3336779
  47.1638936  30.8573565  64.2654387  46.5513249  31.3443967  64.6508119
  47.2603111  30.1817056  64.8092039  47.0876834  30.8291874  64.4033246
  41.1658017  32.6136406  59.3651887  41.6201763  32.7846966  60.0899731
  41.6398063  32.0004517  58.9649663  41.3026337  32.5487291  59.4125648
  34.6873542  42.0984732  68.6954625  34.0961476  42.7394230  68.6657640
  35.4494566  42.5222349  68.6685925  34.7121803  42.2560570  68.6869773
  35.0834165  33.2586730  69.3622643  35.5435647  33.3325659  70.0997767
  35.1290272  34.0567984  69.0122464  35.1584720  33.3880877  69.4195399
  36.7317515  33.9253425  73.9294670  36.3403080  33.2786772  74.3650448
  36.9003378  34.5164860  74.5488925  36.6988425  33.9167692  74.0857376
  50.8063964  41.9290502  69.6931904  50.8647088  42.3777150  70.4391880
  50.1730431  42.3389314  69.2561984  50.7215259  42.0564236  69.7384452
  44.4463059  47.5494043  66.1286650  44.2482747  48.0384858  65.4342861
  43.8250770  47.7535285  66.7070783  44.3250623  47.6510582  66.1109873
  38.5071037  39.3178940  60.4696894  39.2513082  39.7053217  60.7079844
  38.6531733  38.4736366  60.6337382  38.6381622  39.2509413  60.5290864
  40.4250612  31.1129199  65.5028755  39.5786657  31.2852007  65.3770105
  40.4221745  30.3078543  65.8394584  40.2997762  31.0190228  65.5339882
  41.4948913  34.8904414  66.3690813  41.0208867  34.3646176  66.8796124
  41.8667049  34.3433886  65.8005675  41.4798802  34.7320410  66.3605961
  31.8721943  36.8875920  71.7374359  32.7347556  36.7871630  71.6511689
  31.5413726  36.3070630  71.1759931  31.9507139  36.7867547  71.6419765
  47.7585643  39.9506789  67.7797594  47.5183866  39.1113204  67.7840020
  48.2377650  40.0306956  68.5038367  47.7937827  39.8388189  67.8872396
  49.7590830  36.7308246  65.7326853  49.5200600  36.6904081  64.8947638
  49.9224732  37.5779399  65.8592574  49.7481134  36.8500331  65.6280335
  46.3636860  41.1158196  71.6631898  47.0871059  40.6630722  71.4842918
  46.0986823  41.3962861  70.8804226  46.4318134  41.0909164  71.5210613
  35.2323729  35.7118369  68.3984777  34.6076799  35.7236761  67.7910730
  34.8969324  36.1878544  69.0476018  35.0909221  35.7836886  68.4041346
  31.9449404  43.7718829  69.8388542  31.4149329  43.0811268  69.8883516
  32.2174498  43.7629015  69.0101250  31.9074127  43.6685961  69.7235958
  42.1455650  41.2142074  69.8126913  41.5312643  40.6700124  70.1075548
  42.6622935  40.7006310  69.3332729  42.1311312  41.0578483  69.7851142
  41.3851947  42.2846344  67.5471212  40.9579555  41.6596063  67.1136647
  41.3776892  42.0021266  68.3730219  41.3211088  42.1499125  67.6051039
  34.5014474  37.3211517  70.6159646  34.6607961  36.5654841  71.0211368
  34.3207368  37.8702457  71.2700383  34.4979833  37.2905331  70.7722352
  42.4434777  29.4872753  71.1710435  41.9475338  29.6836427  70.4802002
  43.2003839  29.8865421  70.9999237  42.4821602  29.5750486  71.0430572
  39.7137657  33.1615099  67.7613746  39.7380144  32.6275211  67.0726526
  39.9649130  32.6532407  68.4239336  39.7547576  33.0076003  67.7578390
  27.2245247  40.4446594  67.1956890  27.1188696  40.3993438  66.3308974
  26.4745467  40.7900374  67.4771175  27.0980850  40.4887502  67.1094220
  35.9938979  31.8885917  67.1419490  36.0337351  32.3895123  67.8554198
  35.1688644  31.9796311  66.8725413  35.8778505  31.9767733  67.2070028
  38.1768592  41.4546657  75.2439785  37.3264222  41.5918371  75.3797430
  38.3396720  40.7210435  75.6887486  38.0752455  41.3660758  75.3295384
  37.4153342  38.4046427  69.4393389  36.5845272  38.5720245  69.2328637
  37.3604860  38.0282377  70.2242274  37.2842757  38.3736158  69.5241917
  35.2237126  31.8955320  75.0749800  35.8489829  31.3517452  75.3479232
  34.7687606  31.4150237  74.5057590  35.2485386  31.7444801  75.0311394
  35.7889386  36.6802018  59.9683507  35.9292347  37.1774482  60.6712148
  36.2871919  35.9788313  60.1097721  35.8830467  36.6503997  60.0935086
  35.8189609  37.5469129  57.2976084  36.4534688  38.1429554  57.2325545
  35.9015219  37.2472587  58.1121954  35.9246160  37.5910037  57.4079170
  48.7972174  40.0784607  70.1662448  49.3890015  40.7181857  70.1980646
  49.2331169  39.3807643  70.4554515  48.9490606  40.0702957  70.2143280
  37.3968592  33.4783105  57.2721526  37.7184433  32.9986187  56.6180788
  37.6595535  34.2882751  57.0812337  37.4834617  33.5273003  57.1477018
  40.6265564  44.5001979  70.7920342  40.1190655  45.0537826  71.2360972
  40.3292210  44.5610269  69.9739116  40.5070449  44.5908290  70.7368798
  42.7927746  32.8655299  69.6345005  43.2182818  32.4127825  69.0228531
  42.1784740  32.3115369  69.9109792  42.7656392  32.7169275  69.5850030
  32.3242597  39.7436970  60.5665630  32.8334826  40.3401478  60.9476935
  32.7976869  39.4762944  59.8842049  32.4685972  39.7922785  60.5220152
  41.2321969  29.3370398  63.0435582  40.5890287  29.1868045  63.6120720
  40.8921376  29.0912744  62.2784686  41.0867047  29.2782521  63.0138597
  39.8708050  49.4326537  67.6977349  39.6473704  48.6745367  68.0661375
  39.3817893  49.4624558  66.9757788  39.7651499  49.3248762  67.6454090
  45.9849443  33.7485709  65.3755964  46.3377053  33.3215432  66.0501762
  45.1264245  33.6636552  65.5057040  45.9098888  33.6730450  65.4950974
  34.6833128  36.3793229  63.4338810  33.9645117  36.7957361  63.7011674
  35.0545491  36.9447467  62.8830448  34.6325060  36.5242510  63.3921617
  43.9832709  37.0121077  69.3240806  43.9630636  36.8304373  70.1775585
  44.0311910  37.8833096  69.3000389  43.9867350  37.1137616  69.4464101
  41.9279039  43.6008269  75.2489282  41.8874894  42.9557946  74.6634438
  42.7402357  43.5444887  75.5614694  42.0422192  43.4967236  75.2086232
  38.5186506  49.6526995  65.1514433  38.1046905  48.9901126  64.7618275
  39.2033881  49.8004854  64.6310127  38.5584878  49.5767654  65.0170930
  41.8851801  48.8117081  65.9038050  41.4868084  48.9219351  65.1358870
  41.2703020  49.0199147  66.4864610  41.7350690  48.8590649  65.8769349
  40.4579703  35.4191228  58.7712190  39.8644542  35.7408225  58.2196757
  40.4954980  34.5732324  58.5633296  40.3754092  35.3415557  58.6594961
  47.4173503  28.8704121  66.3040276  46.9104368  28.1633260  66.2361454
  48.2140937  28.5397310  66.4341353  47.4600743  28.7177272  66.3139271
  37.6156748  37.2305206  71.8039040  37.1035651  36.6226389  72.1624071
  37.4436244  37.9461799  72.2713016  37.5146385  37.2468505  71.9255264
  32.4622462  35.6742781  74.4541402  32.2925053  36.3344156  73.9089608
  32.0188412  35.8849343  75.1753891  32.3721796  35.8028763  74.4803031
  36.3882282  33.9147279  63.4968135  36.8639648  34.2764359  62.8618317
  35.8870881  34.5703747  63.7768278  36.3847641  34.0641468  63.4444876
  41.4925818  35.1529451  74.2441296  42.0497248  34.9243260  73.6119761
  41.1686883  35.9135116  73.9676508  41.5272228  35.2313287  74.1097793
  29.3624527  38.5789647  69.7129892  28.8151246  37.9090292  69.8310760
  30.1516905  38.2119495  69.7773359  29.3976711  38.4254633  69.7398592
  39.2108935  38.2397104  75.2093303  39.9620262  38.5548781  75.5232857
  39.4031512  38.0376275  74.3827224  39.3500349  38.2564486  75.1336698
  46.0594225  34.3670670  62.4517098  46.0588452  34.2119327  63.3101374
  45.8550405  35.2133657  62.3958484  46.0294003  34.4691291  62.5705038
  28.1211496  37.7910455  66.8675915  27.9433257  37.3387064  67.5930830
  27.8330518  38.5936616  67.0514392  28.0524450  37.8433012  67.0019418
  43.7835077  39.0468172  66.1053305  44.2788743  38.3291167  66.0657325
  42.9734853  38.7438970  65.9907792  43.7378971  38.8965818  66.0827031
  29.8583966  40.3238178  63.9797674  28.9929486  40.3123869  63.8680445
  29.9582782  40.1368401  64.8268813  29.7458133  40.2944240  64.0886618
  45.8486896  41.7971860  68.7930434  46.2741968  41.2746281  68.2400859
  45.4843816  42.3952697  68.2719057  45.8573499  41.8082087  68.6339444
  35.4840976  50.0936077  67.5527779  35.7987535  50.9072465  67.5605561
  35.8934389  49.7086296  68.2209938  35.5909074  50.1564779  67.6531871
  42.4365496  45.5106124  65.1231591  42.9076674  46.2246386  65.2921576
  42.7725674  44.9104874  65.6591461  42.5560611  45.5277588  65.2263967
  44.5242480  47.1207437  77.3023663  44.6339446  46.3315998  77.6580411
  44.8533377  47.0313373  76.4998001  44.5894886  46.9913290  77.2366054
  39.3534991  30.2833594  72.0789686  39.4862896  29.4864588  72.4070662
  39.7380143  30.8099997  72.6587962  39.4291320  30.2433511  72.2133189
  43.0739442  45.3024058  71.8859284  42.5260388  44.6781942  71.6179349
  43.5352471  45.4918330  71.1703363  43.0606652  45.2383108  71.7409715
  42.4267346  27.2063921  68.6770779  41.6213310  27.0961650  68.9938618
  42.2974081  27.3076376  67.8200645  42.2887479  27.2047591  68.5978820
  45.8833306  33.3709412  69.2710476  45.2996295  33.8718619  68.8588044
  46.2037600  32.8638969  68.6374799  45.8446482  33.3701247  69.1168983
  38.4228106  32.2850007  59.5469151  39.2443800  32.4548320  59.3050846
  37.9597756  32.4397268  58.8235449  38.4759268  32.3331740  59.4040795
  37.0123437  30.2792769  70.3267580  37.5567850  29.9383896  70.9171921
  37.0660373  31.1378231  70.4688864  37.1012557  30.3548029  70.4349453
  32.8253996  44.0409185  67.2006388  33.4298854  44.0005020  66.5720208
  32.6181309  44.8880338  67.2310444  32.8842894  44.1597188  67.1122504
  42.6397768  46.3075131  68.4168625  43.4596142  46.1638097  68.6784920
  42.3591846  46.9321330  68.9585063  42.7194512  46.3785483  68.5356564
  28.0605279  43.0243803  67.0705311  27.9629557  42.2140074  67.3795367
  28.8434148  43.0035596  66.6851579  28.1621415  42.9010893  67.0592174
  59.1111419  53.9639982  61.3811501  59.0805423  54.8184619  61.5529771
  59.7092768  53.6635275  61.9397645  59.1948577  54.0456479  61.4886304
  52.3111104  53.0515633  66.1364432  51.4548999  53.2124132  66.1873549
  52.3578757  52.1807697  66.1569493  52.1910215  52.9466435  66.1470498
  46.6952243  62.5878351  61.9001663  45.9435143  62.2093890  61.6717708
  47.1438255  62.6196785  61.1520474  46.6501910  62.5363958  61.7559166
  52.1477203  63.0103721  57.3287211  51.8128572  63.6880642  56.8931433
  52.6604074  62.6209032  56.7404082  52.1742784  63.0528299  57.1774002
  51.6881494  64.9617989  63.2698322  52.0720874  65.5304888  62.7303097
  51.6240636  64.2367500  62.7904138  51.7354922  64.9393453  63.1192185
  55.1562925  55.1107677  68.7796083  55.7018885  55.7892764  68.8390053
  55.0979801  54.9695138  67.9197665  55.2278839  55.1899679  68.6608144
  48.2736999  62.5996743  64.1664436  48.3747362  61.7897097  64.4761564
  47.6778745  62.5053690  63.5364114  48.2009538  62.4661771  64.1190674
  56.9327993  56.5392284  59.6529811  56.8167519  57.2899970  60.0821949
  57.7283880  56.2816238  59.9025898  57.0332583  56.6127131  59.7533903
  48.1137739  67.5174333  65.5679292  48.7575195  67.9587497  65.9575450
  48.4393995  66.7127759  65.4809551  48.2569568  67.4639527  65.6124769
  41.4702044  58.6217030  63.7916770  41.2352228  57.7884682  63.6849038
  41.6087685  58.9021696  62.9777971  41.4557706  58.5400533  63.6559125
  43.7692131  50.7902761  66.6901077  43.1497163  50.1995408  66.5211092
  43.6675995  51.3814196  66.0565400  43.6629807  50.7906843  66.5706067
  48.8158319  60.5286307  60.9399154  49.1374160  61.0691515  60.3360462
  49.4630415  59.9583079  61.0721443  48.9584374  60.5245483  60.8706189
  50.8660027  52.5302302  61.0233540  51.5640192  52.7090430  61.5155004
  51.1812359  52.0072642  60.4003930  51.0155364  52.4796074  61.0035551
  43.4961264  54.3355042  68.9344646  43.3719961  54.9217488  69.5694465
  44.1479549  53.8415238  69.2356921  43.5734914  54.3493847  69.0730576
  51.0547962  58.9172747  61.0113332  51.4941598  58.3089848  61.4568105
  50.9052625  58.5380121  60.2398797  51.0969428  58.7711218  60.9632499
  48.5219605  57.5116759  68.2132157  49.1668608  57.0189202  67.8943106
  48.7621382  57.6541546  69.0398236  48.6530190  57.4594201  68.2881691
  51.0605697  60.3571665  67.8639050  51.3428939  59.5623071  67.6425806
  51.7891857  60.8352253  67.8844111  51.2095260  60.3106262  67.8342065
  54.6557299  57.2699929  57.9644101  54.5708594  58.1260895  58.1093670
  55.1441682  56.9944253  58.6326260  54.7146196  57.3557250  58.0846183
  56.2463298  43.8880222  63.3504426  55.9316739  44.5783701  63.7824848
  55.7290240  43.8325004  62.6489926  56.1227769  43.9815110  63.3101375
  55.5875732  53.8884723  59.4641836  55.0587203  54.1044356  60.1239142
  56.1100752  54.5820861  59.3842806  55.5864185  54.0227860  59.5497435
  61.0423785  59.4631027  64.8374881  60.2121488  59.6741671  65.0008297
  60.9933037  58.6368082  64.5617164  60.9130520  59.3720634  64.8212246
  47.4775340  57.7847940  58.2649304  46.8932555  58.2897971  58.6715168
  47.0745435  57.5590327  57.5245896  47.3314644  57.8256188  58.2154329
  43.0319368  63.5002701  65.0672976  42.5486947  64.2253190  65.0432559
  43.8442687  63.7978831  65.1783133  43.0810116  63.6505054  65.0800255
  49.1033523  62.2934881  67.6722790  48.5860464  61.9342296  67.0684098
  49.8007914  61.7697056  67.6828856  49.1299104  62.1632569  67.5853049
  51.9352554  54.0313592  56.7418225  52.1748558  54.2391575  55.9293568
  52.2568395  53.2271100  56.8507169  52.0189712  53.9427693  56.6378778
  45.8863566  64.0158877  65.2193256  46.5884145  63.5010866  65.2766012
  45.8061049  64.3433028  66.0240131  45.9787326  63.9873103  65.3466048
  60.5377743  52.1101428  68.6325302  59.7006164  52.1803615  68.8672896
  60.5065974  52.1125923  67.7599604  60.4096026  52.1211655  68.5384850
  46.9342472  54.2534464  74.3473671  47.1062976  54.1440358  75.1958952
  47.4711830  54.8988869  74.1104863  47.0387476  54.3326465  74.4378767
  45.2114341  60.2065229  64.7278864  46.0503241  60.4388161  64.7752625
  45.2426110  59.3369540  64.6585899  45.3396059  60.1122175  64.7243508
  45.8367044  60.6266104  69.0292169  46.3765269  60.4837235  69.6995541
  45.1536990  61.0262855  69.3976195  45.8159198  60.6645775  69.1826591
  55.2607929  56.3057104  64.2237193  56.0165444  56.7388619  64.2626102
  55.3670253  55.6561874  64.7971830  55.3878100  56.2734588  64.3135219
  58.2988100  60.1330382  64.9739596  57.8623332  60.1367124  65.7298568
  57.9651016  60.8135881  64.5419174  58.1850720  60.2342838  65.0220429
  41.2404189  56.8466395  69.1826591  40.9742604  56.0305511  69.3417581
  41.2542753  56.8919550  68.3122106  41.2028912  56.7323299  69.0780073
  58.2185583  47.1744210  67.2169024  58.8611491  47.2442314  67.8030940
  58.4708604  46.5073432  66.7148566  58.3507715  47.0870558  67.2296304
  45.9902796  50.3844773  71.8293598  45.2974592  49.9141753  72.0754330
  46.6063123  50.1583077  72.4035306  45.9787326  50.2811905  71.9502751
  61.4332446  56.8511302  63.8659234  62.0948880  56.2901970  63.7655142
  60.7923858  56.3563332  64.1911925  61.4361314  56.6947711  63.8991574
  52.3209254  60.1481433  56.1740157  52.7360403  59.8166457  55.4824653
  51.4901184  59.9150335  56.0460294  52.2597263  60.0652689  56.0531004
  41.6497603  57.6325174  66.4638335  41.4673176  57.6072060  65.6110627
  42.3847272  58.1024112  66.5027244  41.7311667  57.6986536  66.3436253
  57.7197277  57.8676684  63.6071222  57.9552866  58.0121883  62.7798073
  57.8686841  58.6319092  64.0002736  57.7763080  58.0015738  63.5434826
  44.7143355  54.3510177  72.9720444  45.4383327  54.3363208  73.4585338
  44.8159491  55.0605532  72.4742412  44.8361564  54.4534880  72.9699230
  59.5487734  56.7078350  61.4440826  59.8795951  57.2405990  60.8380921
  60.1220822  56.7617238  62.1002777  59.6821413  56.7947919  61.4518608
  54.7619623  54.5543253  62.1264406  54.8566477  55.2932547  62.5804032
  54.1378466  54.1260728  62.5598971  54.6828653  54.6004573  62.2572554
  41.6168513  54.5118675  66.6137402  42.1942016  54.3755125  67.2529647
  40.9182575  54.0554459  66.8682986  41.5989535  54.4240941  66.7459691
  55.0142644  56.3991992  55.3601358  54.9322807  56.4694180  56.2256345
  55.6522365  56.9621736  55.1685099  55.0962482  56.4930964  55.4591308
  48.3735815  56.1652730  64.8275885  48.1155060  55.3324465  64.8007184
  48.4284298  56.3910343  63.9868385  48.3435593  56.0750502  64.6996021
  47.3470528  53.7190493  65.3140779  46.7720119  53.8782661  65.9504740
  46.9706204  53.0825902  64.8509230  47.2073340  53.6488306  65.3395338
  51.0143816  52.1913842  70.1733158  50.6258249  51.7668060  69.5185349
  50.3498515  52.4395992  70.6810185  50.8590744  52.1652563  70.1521026
  60.6567085  51.9488847  62.9480988  60.4003650  51.1368788  62.7578871
  61.4996399  51.9566414  62.7211175  60.7433111  51.8300844  62.8865805
  37.0927346  53.3630568  63.3285220  37.1787598  52.9862436  64.1098750
  37.7203144  52.9891013  62.8505178  37.1983897  53.2516050  63.3730697
  54.8370178  45.8888471  67.6857142  55.2180689  45.2066642  68.0725016
  54.0333462  45.5998073  67.5032807  54.7746639  45.7455519  67.7161198
  52.1182754  56.4212447  58.3709965  52.9323393  56.7127340  58.2592736
  52.0541896  55.7672309  57.7968258  52.2285493  56.3677641  58.2698802
  47.9890663  59.8933964  63.4982277  48.6264610  59.6545712  64.0434070
  48.4145734  60.0971123  62.7635438  48.1466829  59.8884974  63.4699434
  42.6803305  62.1322301  67.3816581  42.7207450  62.4037152  66.5536360
  43.2397829  62.6564209  67.7974369  42.7686651  62.2498056  67.3208469
  48.6293478  55.1136254  57.8357166  49.0138630  54.8943961  58.5873711
  48.3805098  55.9399199  57.9658243  48.6495550  55.2034400  57.9658243
  48.7962018  48.3942669  77.5519751  48.4815459  49.1642232  77.2889313
  48.4751951  47.8312925  76.9671978  48.7020937  48.4252938  77.4261101
  50.3712135  60.3706387  65.1776063  50.4451143  60.2081559  66.0317913
  51.1881641  60.5596576  64.9336545  50.5028493  60.3743129  65.2674089
  44.1317891  60.7164250  62.2070507  43.3056009  60.9625987  62.0804785
  44.1929883  60.6376330  63.0732565  44.0192058  60.7409199  62.3159451
  46.3493915  46.7833191  63.1665947  45.4816341  46.8555790  63.2323556
  46.6369119  47.5855270  63.3553922  46.2633663  46.9127338  63.2040713
  55.4726804  46.9311050  71.4977269  56.2180396  46.7420860  71.0840694
  55.0564108  47.4569288  70.9391125  55.5211778  46.9813195  71.3541842
  48.9116720  63.3341130  59.9089537  49.2015019  62.9430111  59.1848763
  49.6420201  63.5157835  60.3494812  49.0623605  63.3034944  59.8672344
  62.8489075  54.3020279  66.4482774  63.3996996  53.6688348  66.6879866
  62.8333190  54.8335671  67.1398278  62.9274271  54.2869227  66.5861632
  49.5011466  58.1358876  70.9942667  49.0023159  58.8474643  71.0727556
  50.3111690  58.4559542  70.9560830  49.5467572  58.2885724  70.9999236
  46.8522636  65.3108512  62.9749686  46.6322931  65.0205867  63.7676353
  46.6317158  64.6523467  62.4467599  46.7870230  65.1708221  63.0138595
  45.7639583  57.3981829  65.2405388  45.4752832  56.7719300  65.7751115
  46.6322931  57.3402116  65.3070068  45.8499835  57.2969373  65.3296343
  56.5517481  52.5416612  65.5587370  56.2082247  51.8206947  65.9094620
  56.6510523  52.3330463  64.7165728  56.5159524  52.4040815  65.4859050
  49.0190592  66.6837902  61.7580379  49.6714650  66.1514345  61.9871405
  48.3216200  66.3306555  62.1448253  49.0121310  66.5527425  61.8492546
  45.9671857  59.0377080  61.1647753  46.7217825  59.4190119  61.3783216
  45.3742469  59.4888223  61.6194450  45.9908570  59.1605907  61.2630631
  57.0130510  59.0042316  61.1011358  57.5788543  59.6635526  61.0169901
  56.3658413  59.3492014  61.5727760  57.0009266  59.1524258  61.1584114
  48.4278524  50.9939920  76.2904965  47.6178299  51.2997700  76.1794808
  48.9053210  51.7145503  76.4057549  48.3782002  51.1454521  76.2912036
  47.2870083  60.2085641  66.5387868  46.7650837  60.3485933  67.2239733
  47.6744103  59.4496305  66.7289986  47.2673784  60.1171165  66.6688945
  44.2761267  50.2591450  60.6082823  43.9886063  49.8892720  59.8714770
  44.9631735  50.7286305  60.3466528  44.3350164  50.2738419  60.4597899
  53.4837088  61.9481100  60.5248437  53.2423764  61.2148961  60.1175502
  53.6638421  62.4967957  59.8714771  53.4744712  61.9203492  60.3678660
  48.7136409  57.2389660  61.9369359  48.5179191  57.8464395  61.3429662
  48.9370754  56.5457604  61.4561033  48.7171050  57.2267186  61.7785440
  47.1114939  54.1244398  62.0550228  47.8337591  54.2885556  61.5954034
  46.6322932  54.8454063  61.9489568  47.1478669  54.2542628  61.9715842
  55.0708446  50.4608197  67.4346913  54.2319547  50.4869476  67.1985176
  55.1412814  51.1078932  68.0152259  54.9576840  50.5604323  67.4856030
  44.7622555  56.5302471  71.1604368  45.2743652  56.8086724  70.5113127
  44.4758898  57.2691765  71.5267181  44.7957419  56.6804824  71.1194246
  58.9465970  55.6676184  64.7208155  58.8599945  55.8231610  65.5742933
  58.4916450  56.3114259  64.3467560  58.8669227  55.7851939  64.7915261
  41.8489462  51.0372662  61.4568104  41.9505598  51.8398824  61.7849080
  42.6445349  50.8359998  61.1591185  41.9817367  51.1258561  61.4603460
  48.2806281  48.6228859  71.2205409  48.0889478  48.6383994  72.0704833
  49.1304877  48.8192533  71.1972064  48.3782003  48.6543210  71.3428704
  42.6653194  51.1519841  69.1989226  42.5238686  50.3003781  69.3233734
  42.9493757  51.1948501  68.3751432  42.6861040  51.0319591  69.0956850
  52.8191786  52.9886931  63.3433714  52.5726501  52.9082682  64.1770503
  53.1476909  52.2040399  63.1496242  52.8313030  52.8613196  63.4381237
  56.7139835  59.6970290  67.1320495  56.5754194  60.3951336  67.6369238
  55.9339833  59.5418947  66.7756677  56.5783062  59.7770457  67.1546769
  48.7788814  55.7243649  72.7556697  48.9232189  56.3044858  72.1199807
  49.1264462  56.1019946  73.4606552  48.8516275  55.8664353  72.7655692
  50.9508731  54.9233818  70.5381829  50.2032045  55.1164832  70.1330107
  51.1050256  54.0979037  70.3005950  50.8631158  54.8298929  70.4427235
  47.8516568  63.9146421  69.6217724  48.0006132  63.3549337  68.9691128
  48.6316571  63.9938423  70.0050243  47.9890662  63.8431987  69.5814673
  58.2093208  59.0548544  57.8936995  57.8300017  58.2685682  57.8866284
  57.5459453  59.6035401  57.7508639  58.0551683  59.0193368  57.8717791
  51.1910508  48.8184368  71.4277232  51.6483122  49.5508343  71.5550025
  51.2666837  48.3950834  72.1864488  51.2701478  48.8641607  71.5578309
  43.4343499  49.0650188  72.5166676  42.8985689  48.4530546  72.8327443
  43.4961264  49.6398324  73.1700343  43.3639132  49.0597116  72.6602103
  55.6637834  41.9974244  65.2971075  55.7821402  42.4550707  64.5638378
  55.4900010  41.1919505  65.0107293  55.6557005  41.9468016  65.1472009
  51.0340116  62.6062063  61.7325821  51.7990007  62.3371707  61.4108485
  50.9318206  62.1212073  62.4495884  51.1321612  62.4951628  61.7905648
  49.0692886  50.8086472  68.2719056  48.2788961  50.6277933  68.5936392
  49.4653509  50.0313425  68.2549351  49.0109762  50.6673933  68.3171605
  53.5558777  59.6374247  53.7125770  54.3231762  59.6974372  53.3031622
  53.1090086  59.0654688  53.2282089  53.6032204  59.5610822  53.5803480
  54.4536572  58.4428903  65.9978502  53.7781574  58.2114135  66.4991889
  54.4628948  57.8350085  65.3720607  54.3555077  58.3187828  65.9794655
  51.5830716  53.2846732  72.7542555  51.5189857  54.1456688  72.6262692
  51.7227904  52.9678725  71.9538107  51.5946186  53.3646898  72.6170768
  56.4553307  61.2994035  58.2288680  56.5373144  62.1061021  57.9050131
  56.9403049  61.3189994  58.9529454  56.5390465  61.4214697  58.2875579
  50.2649810  55.9778871  66.8958758  49.8412059  56.1783370  66.1597777
  50.0894665  55.1307719  67.0083058  50.1760691  55.8827652  66.8032448
  45.5532255  56.4730922  62.3286731  45.7096874  56.4077725  63.1842723
  45.8932848  57.2479475  62.1165410  45.6265490  56.5780120  62.4241325
  52.0911400  55.8488806  61.1980094  52.6326945  55.3459187  61.6618715
  52.4057959  55.7954001  60.3869579  52.2175797  55.7668227  61.1463906
  50.2597849  61.2406157  58.4820122  50.3290670  60.3820696  58.6213122
  51.0386304  61.4578038  58.1539147  50.3850699  61.1459021  58.4537279
  53.2400669  50.7425110  71.2502395  53.4542639  50.1036025  70.6965748
  52.6234568  51.1870934  70.8210256  53.1805998  50.7135254  71.1052826
  54.6505337  63.6643859  62.6956615  54.2585129  63.3610574  61.9779482
  54.8058409  64.5012949  62.5061569  54.6158927  63.7427695  62.5613112
  42.1266516  53.6565873  62.6447498  42.5065481  54.0750418  61.9807765
  41.5521881  54.2379328  62.9516341  42.0977841  53.8043732  62.5924239
  55.4039757  52.3514176  72.1885702  54.5916439  52.0440066  72.2698874
  55.8629692  51.8713176  72.7528414  55.3520142  52.2350668  72.2840296
  54.8145012  60.2293848  62.6362646  54.4559666  60.4008490  63.4126678
  54.3283722  60.6907053  62.0790644  54.6903709  60.3232819  62.6687915
  52.6315398  43.8525046  66.2389737  51.7608956  43.8263767  66.1923047
  52.8855739  43.6802238  65.4215583  52.5408958  43.8235190  66.1109874
  49.6033377  55.9093013  55.1762880  49.8925902  56.6857895  55.4506455
  49.6905176  55.3981744  55.8777380  49.6587633  55.9484931  55.3205378
  49.6564538  45.8631274  67.6963208  49.1403027  45.1711466  67.8214787
  49.0958467  46.5302052  67.6425806  49.4971051  45.8594532  67.7069274
  51.7256772  46.4024235  69.5256060  51.3388525  46.4273266  70.3069590
  51.2389709  45.8365913  69.0730577  51.5969280  46.3219985  69.5743964
  57.7006751  52.9686889  68.1495762  57.2734359  52.8813238  67.3943862
  57.0632804  53.0764665  68.7350607  57.5436358  52.9719549  68.1241204
  51.3913913  43.2891220  71.8166320  52.0207031  43.8251520  71.5387391
  51.5599776  43.1968579  72.6679886  51.5091708  43.3552582  71.9014848
  51.1927828  48.0762415  74.0892732  52.0201258  47.8047564  74.1451346
  51.2135674  48.8723256  74.4456550  51.3180678  48.1542169  74.1507915
  45.7697318  55.2226278  67.2762992  44.9285325  55.1230152  67.4841886
  45.9787326  55.9921758  67.6277313  45.6762011  55.3218321  67.3590307
  43.2472885  52.8445814  65.1047743  42.8529583  52.9188826  64.3297853
  42.6913002  53.2303761  65.6556105  43.1075697  52.9127589  65.0715403
  54.8837832  45.8227108  64.7851622  55.0887425  45.7549416  65.6308619
  54.5564256  46.6285930  64.7172799  54.8653080  45.9313049  64.9011277
  49.5813983  53.1507677  66.5260590  49.2777120  52.5963665  67.1270998
  48.8793404  53.3299887  66.0388624  49.4330193  53.0952459  66.5430296
  47.6432334  60.3657397  71.2332688  47.5352689  60.3759460  72.0994746
  47.8528115  61.1912178  71.0437641  47.6582445  60.4898472  71.3336779
  58.1371519  46.3758873  64.2654387  57.5245833  46.8629275  64.6508119
  58.2335694  45.7002364  64.8092039  58.0609417  46.3477181  64.4033246
  45.6606126  57.6170040  68.6954625  45.0694059  58.2579538  68.6657640
  46.4227149  58.0407657  68.6685925  45.6854386  57.7745878  68.6869773
  46.0566749  48.7772038  69.3622643  46.5168230  48.8510967  70.0997767
  46.1022855  49.5753292  69.0122464  46.1317304  48.9066185  69.4195399
  47.7050098  49.4438732  73.9294670  47.3135664  48.7972080  74.3650448
  47.8735961  50.0350168  74.5488925  47.6721009  49.4353000  74.0857376
  55.4195642  63.0679351  66.1286650  55.2215331  63.5570166  65.4342861
  54.7983353  63.2720593  66.7070783  55.2983207  63.1695890  66.1109873
  49.4803620  54.8364248  60.4696894  50.2245665  55.2238525  60.7079844
  49.6264317  53.9921674  60.6337382  49.6114206  54.7694721  60.5290864
  52.4681496  50.4089722  66.3690813  51.9941451  49.8831484  66.8796124
  52.8399632  49.8619194  65.8005675  52.4531385  50.2505718  66.3605961
  42.8454526  52.4061228  71.7374359  43.7080139  52.3056937  71.6511689
  42.5146309  51.8255938  71.1759931  42.9239723  52.3052855  71.6419765
  58.7318227  55.4692097  67.7797594  58.4916450  54.6298512  67.7840020
  59.2110234  55.5492264  68.5038367  58.7670411  55.3573497  67.8872396
  60.7323414  52.2493554  65.7326853  60.4933184  52.2089389  64.8947638
  60.8957315  53.0964706  65.8592574  60.7213717  52.3685639  65.6280335
  46.2056312  51.2303677  68.3984777  45.5809383  51.2422069  67.7910730
  45.8701907  51.7063852  69.0476018  46.0641804  51.3022194  68.4041346
  42.9181988  59.2904137  69.8388542  42.3881912  58.5996576  69.8883516
  43.1907081  59.2814323  69.0101250  42.8806710  59.1871269  69.7235958
  53.9502078  59.8729840  58.5626224  54.6736277  60.3387953  58.4190797
  53.5102669  59.9403449  57.8123821  53.9917771  59.9513676  58.4311006
  53.1188234  56.7327382  69.8126913  52.5045227  56.1885432  70.1075548
  53.6355518  56.2191618  69.3332729  53.1043896  56.5763791  69.7851142
  52.3584531  57.8031652  67.5471212  51.9312139  57.1781371  67.1136647
  52.3509475  57.5206574  68.3730219  52.2943672  57.6684433  67.6051039
  45.4747058  52.8396825  70.6159646  45.6340545  52.0840149  71.0211368
  45.2939951  53.3887765  71.2700383  45.4712417  52.8090639  70.7722352
  53.4167361  45.0058061  71.1710435  52.9207922  45.2021735  70.4802002
  54.1736423  45.4050729  70.9999237  53.4554185  45.0935794  71.0430572
  50.6870240  48.6800407  67.7613746  50.7112728  48.1460519  67.0726526
  50.9381714  48.1717715  68.4239336  50.7280159  48.5261310  67.7578390
  38.1977830  55.9631901  67.1956890  38.0921279  55.9178746  66.3308974
  37.4478050  56.3085682  67.4771175  38.0713433  56.0072810  67.1094220
  46.9671563  47.4071225  67.1419490  47.0069934  47.9080431  67.8554198
  46.1421227  47.4981618  66.8725413  46.8511089  47.4953041  67.2070028
  48.3885926  53.9231735  69.4393389  47.5577856  54.0905553  69.2328637
  48.3337443  53.5467685  70.2242274  48.2575341  53.8921466  69.5241917
  46.1969709  47.4140628  75.0749800  46.8222413  46.8702760  75.3479232
  45.7420189  46.9335545  74.5057590  46.2217970  47.2630109  75.0311394
  46.7621970  52.1987326  59.9683507  46.9024931  52.6959790  60.6712148
  47.2604503  51.4973621  60.1097721  46.8563051  52.1689305  60.0935086
  46.7922192  53.0654437  57.2976084  47.4267272  53.6614862  57.2325545
  46.8747803  52.7657895  58.1121954  46.8978743  53.1095345  57.4079170
  53.7660330  48.3840607  69.6345005  54.1915402  47.9313133  69.0228531
  53.1517323  47.8300677  69.9109792  53.7388975  48.2354583  69.5850030
  43.2975180  55.2622278  60.5665630  43.8067409  55.8586785  60.9476935
  43.7709452  54.9948252  59.8842049  43.4418556  55.3108093  60.5220152
  54.2105928  63.9350545  58.7224285  53.4935238  63.7611407  58.2571523
  54.8612666  63.7003117  58.1899771  54.2007779  63.8746337  58.5753503
  56.7953899  52.8115133  62.4665590  56.1245089  53.3544835  62.3378656
  57.4893650  53.2809988  62.2247285  56.7982767  52.9613404  62.4121118
  50.8440633  64.9511845  67.6977349  50.6206288  64.1930674  68.0661375
  50.3550476  64.9809866  66.9757788  50.7384082  64.8434070  67.6454090
  56.9582027  49.2671017  65.3755964  57.3109637  48.8400740  66.0501762
  56.0996828  49.1821860  65.5057040  56.8831471  49.1915757  65.4950974
  45.6565712  51.8978536  63.4338810  44.9377701  52.3142669  63.7011674
  46.0278074  52.4632775  62.8830448  45.6057644  52.0427818  63.3921617
  54.9565293  52.5306385  69.3240806  54.9363220  52.3489681  70.1775585
  55.0044493  53.4018404  69.3000389  54.9599934  52.6322924  69.4464101
  49.4919090  65.1712303  65.1514433  49.0779489  64.5086433  64.7618275
  50.1766464  65.3190162  64.6310127  49.5317462  65.0952961  65.0170930
  52.8584384  64.3302389  65.9038050  52.4600667  64.4404659  65.1358870
  52.2435604  64.5384455  66.4864610  52.7083273  64.3775957  65.8769349
  58.3906087  44.3889429  66.3040276  57.8836952  43.6818568  66.2361454
  59.1873521  44.0582617  66.4341353  58.4333326  44.2362580  66.3139271
  54.3070103  50.8956041  62.2013940  54.0783796  50.9188742  61.3592298
  54.5668179  50.0713508  62.3208950  54.3116291  50.7772121  62.0939138
  48.5889331  52.7490514  71.8039040  48.0768234  52.1411697  72.1624071
  48.4168827  53.4647106  72.2713016  48.4878968  52.7653813  71.9255264
  43.4355046  51.1928089  74.4541402  43.2657636  51.8529464  73.9089608
  42.9920996  51.4034650  75.1753891  43.3454380  51.3214071  74.4803031
  47.3614865  49.4332587  63.4968135  47.8372232  49.7949667  62.8618317
  46.8603465  50.0889055  63.7768278  47.3580224  49.5826776  63.4444876
  60.5926227  58.9054355  59.2881140  60.9759833  59.6545711  59.5179238
  59.7970340  59.1520175  59.0293130  60.5320009  59.0524049  59.2838714
  52.4658402  50.6714759  74.2441296  53.0229832  50.4428568  73.6119761
  52.1419467  51.4320424  73.9676508  52.5004812  50.7498595  74.1097793
  40.3357110  54.0974955  69.7129892  39.7883830  53.4275600  69.8310760
  41.1249489  53.7304803  69.7773359  40.3709294  53.9439941  69.7398592
  49.4041518  51.5773787  56.8641519  49.7840483  51.5953416  56.0792634
  48.6634114  52.0227776  56.7432367  49.3510356  51.6455562  56.7305088
  57.0326809  49.8855978  62.4517098  57.0321035  49.7304635  63.3101374
  56.8282989  50.7318965  62.3958484  57.0026587  49.9876599  62.5705038
  39.0944080  53.3095763  66.8675915  38.9165841  52.8572372  67.5930830
  38.8063102  54.1121924  67.0514392  39.0257033  53.3618320  67.0019418
  54.7567661  54.5653480  66.1053305  55.2521326  53.8476475  66.0657325
  53.9467437  54.2624278  65.9907792  54.7111554  54.4151126  66.0827031
  50.2026273  58.4151293  58.2550309  49.3937595  58.0917967  58.2083619
  50.7101181  57.7084515  58.1878558  50.1575939  58.2632610  58.2380604
  40.8316550  55.8423486  63.9797674  39.9662069  55.8309177  63.8680445
  40.9315366  55.6553709  64.8268813  40.7190717  55.8129548  64.0886618
  56.8219480  57.3157167  68.7930434  57.2474551  56.7931589  68.2400859
  56.4576400  57.9138005  68.2719057  56.8306082  57.3267394  68.6339444
  46.4573560  65.6121385  67.5527779  46.7720119  66.4257773  67.5605561
  46.8666973  65.2271604  68.2209938  46.5641658  65.6750087  67.6531871
  53.4098079  61.0291432  65.1231591  53.8809258  61.7431694  65.2921576
  53.7458258  60.4290182  65.6591461  53.5293194  61.0462896  65.2263967
  50.3267574  45.8018902  72.0789686  50.4595480  45.0049896  72.4070662
  50.7112727  46.3285305  72.6587962  50.4023903  45.7618819  72.2133189
  53.3999929  42.7249228  68.6770779  52.5945893  42.6146958  68.9938618
  53.2706665  42.8261684  67.8200645  53.2620062  42.7232899  68.5978820
  56.8565890  48.8894720  69.2710476  56.2728879  49.3903927  68.8588044
  57.1770184  48.3824277  68.6374799  56.8179065  48.8886555  69.1168983
  47.9856021  45.7978077  70.3267580  48.5300434  45.4569204  70.9171921
  48.0392957  46.6563539  70.4688864  48.0745140  45.8733337  70.4349453
  43.7986580  59.5594493  67.2006388  44.4031437  59.5190328  66.5720208
  43.5913892  60.4065645  67.2310444  43.8575477  59.6782496  67.1122504
  53.6130352  61.8260439  68.4168625  54.4328726  61.6823405  68.6784920
  53.3324430  62.4506637  68.9585063  53.6927095  61.8970791  68.5356564
  39.0337862  58.5429111  67.0705311  38.9362140  57.7325382  67.3795367
  39.8166732  58.5220904  66.6851579  39.1353999  58.4196201  67.0592174
  61.8392610  68.0487610  61.0233540  62.5372775  68.2275738  61.5155004
  62.1544943  67.5257950  60.4003930  61.9887948  67.9981382  61.0035551
  60.0119474  63.4180007  65.1054815  59.6822804  63.8691151  64.4358514
  59.3364476  63.3396170  65.6527821  59.8629910  63.4731142  65.0878038
  67.2195882  59.4065530  63.3504426  66.9049323  60.0969008  63.7824848
  66.7022823  59.3510312  62.6489926  67.0960352  59.5000418  63.3101375
  58.4507923  73.3033248  58.2649304  57.8665139  73.8083279  58.6715168
  58.0478019  73.0775634  57.5245896  58.3047227  73.3441496  58.2154329
  62.9085138  69.5498900  56.7418225  63.1481142  69.7576883  55.9293568
  63.2300979  68.7456408  56.8507169  62.9922296  69.4613001  56.6378778
  58.2175428  61.4792295  60.5877763  58.9721396  61.8470612  60.3494813
  58.0402963  61.8531850  61.3556942  58.3029906  61.5890483  60.6662651
  56.5732493  63.8862614  57.2855876  56.3908066  64.1034495  56.4596868
  57.4358106  64.0001627  57.3414490  56.6737082  63.9352512  57.1710363
  62.2532212  60.8889025  60.3204900  62.9818372  60.7104980  59.8743056
  62.3427105  61.7307105  60.5312078  62.3738874  60.9872903  60.2858417
  56.1194520  67.1636787  55.7978349  55.4052697  66.8774966  56.2100781
  56.6038488  67.5033413  56.4384736  56.0853883  67.1718437  55.9533984
  63.2941838  75.6666741  56.1740157  63.7092986  75.3351765  55.4824653
  62.4633767  75.4335643  56.0460294  63.2329846  75.5837997  56.0531004
  65.9875228  71.9177300  55.3601358  65.9055390  71.9879487  56.2256345
  66.6254948  72.4807044  55.1685099  66.0695065  72.0116271  55.4591308
  48.0659930  68.8815876  63.3285220  48.1520182  68.5047744  64.1098750
  48.6935727  68.5076321  62.8505178  48.1716481  68.7701358  63.3730697
  63.0915338  71.9397755  58.3709965  63.9055977  72.2312647  58.2592736
  63.0274479  71.2857617  57.7968258  63.2018077  71.8862949  58.2698802
  59.6026061  70.6321562  57.8357166  59.9871214  70.4129269  58.5873711
  59.3537682  71.4584507  57.9658243  59.6228134  70.7219708  57.9658243
  57.3226499  62.3018499  63.1665947  56.4548924  62.3741098  63.2323556
  57.6101703  63.1040577  63.3553922  57.2366247  62.4312646  63.2040713
  55.2493851  65.7776758  60.6082823  54.9618646  65.4078028  59.8714770
  55.9364319  66.2471613  60.3466528  55.3082748  65.7923727  60.4597899
  58.0847522  69.6429706  62.0550228  58.8070174  69.8070864  61.5954034
  57.6055515  70.3639371  61.9489568  58.1211253  69.7727936  61.9715842
  64.4910308  62.8778882  62.1674529  65.1936661  62.6786630  61.6894487
  64.2254497  62.1054824  62.4743372  64.5556940  62.7341848  62.1419970
  52.8222045  66.5557970  61.4568104  52.9238182  67.3584132  61.7849080
  53.6177932  66.3545306  61.1591185  52.9549951  66.6443869  61.4603460
  66.6370417  57.5159552  65.2971075  66.7553986  57.9736015  64.5638378
  66.4632593  56.7104813  65.0107293  66.6289588  57.4653324  65.1472009
  64.5291360  75.1559555  53.7125770  65.2964345  75.2159680  53.3031622
  64.0822669  74.5839996  53.2282089  64.5764787  75.0796130  53.5803480
  53.0999100  69.1751181  62.6447498  53.4798065  69.5935726  61.9807765
  52.5254465  69.7564636  62.9516341  53.0710425  69.3229040  62.5924239
  63.6047981  59.3710354  66.2389737  62.7341539  59.3449075  66.1923047
  63.8588322  59.1987546  65.4215583  63.5141541  59.3420498  66.1109874
  60.5765961  71.4278321  55.1762880  60.8658485  72.2043203  55.4506455
  60.6637759  70.9167052  55.8777380  60.6320217  71.4670239  55.3205378
  59.6112664  65.9793504  61.0905292  59.8872398  65.2612417  60.6782859
  60.2111333  66.5778424  60.8826398  59.7405928  65.9613875  60.9986053
  63.1123184  63.6507022  59.3651887  63.5666931  63.8217582  60.0899731
  63.5863230  63.0375132  58.9649663  63.2491504  63.5857907  59.4125648
  60.4536204  70.3549556  60.4696894  61.1978249  70.7423832  60.7079844
  60.5996900  69.5106982  60.6337382  60.5846789  70.2880029  60.5290864
  65.3697580  66.8211584  59.4316567  64.8420598  66.9040328  58.7422276
  65.8293288  67.5629456  59.4281212  65.3599430  66.9432246  59.3291262
  57.3630645  65.0914104  54.4557462  57.0143449  65.7433829  54.9189012
  56.8827091  65.0771217  53.7281334  57.2400889  65.1857157  54.4168554
  57.7354553  67.7172634  59.9683507  57.8757514  68.2145098  60.6712148
  58.2337086  67.0158928  60.1097721  57.8295634  67.6874613  60.0935086
  57.7654776  68.5839745  57.2976084  58.3999855  69.1800170  57.2325545
  57.8480387  68.2843203  58.1121954  57.8711327  68.6280653  57.4079170
  59.3433759  64.5153720  57.2721526  59.6649600  64.0356803  56.6180788
  59.6060702  65.3253367  57.0812337  59.4299784  64.5643618  57.1477018
  54.2707764  70.7807586  60.5665630  54.7799993  71.3772093  60.9476935
  54.7442036  70.5133559  59.8842049  54.4151139  70.8293401  60.5220152
  63.1787136  60.3741014  63.0435582  62.5355454  60.2238661  63.6120720
  62.8386543  60.1283360  62.2784686  63.0332214  60.3153137  63.0138597
  56.6298295  67.4163844  63.4338810  55.9110285  67.8327977  63.7011674
  57.0010658  67.9818083  62.8830448  56.5790227  67.5613126  63.3921617
  62.4044870  66.4561844  58.7712190  61.8109709  66.7778841  58.2196757
  62.4420147  65.6102940  58.5633296  62.3219259  66.3786173  58.6594961
  58.3347449  64.9517895  63.4968135  58.8104815  65.3134975  62.8618317
  57.8336049  65.6074363  63.7768278  58.3312808  65.1012084  63.4444876
  60.3774102  67.0959095  56.8641519  60.7573067  67.1138724  56.0792634
  59.6366698  67.5413084  56.7432367  60.3242940  67.1640870  56.7305088
  61.1758856  73.9336601  58.2550309  60.3670179  73.6103275  58.2083619
  61.6833765  73.2269823  58.1878558  61.1308523  73.7817918  58.2380604
  60.3693273  63.3220623  59.5469151  61.1908967  63.4918936  59.3050846
  59.9062924  63.4767884  58.8235449  60.4224435  63.3702356  59.4040795
  36.8597076  -0.1352502  48.3151548  36.8291080   0.7192134  48.4869818
  37.4578424  -0.4357210  48.8737692  36.9434233  -0.0536006  48.4226351
  30.0596760  -1.0476851  53.0704479  29.2034656  -0.8868353  53.1213595
  30.1064414  -1.9184787  53.0909540  29.9395872  -1.1526049  53.0810545
  24.4437900   8.4885867  48.8341710  23.6920800   8.1101405  48.6057755
  24.8923912   8.5204300  48.0860521  24.3987567   8.4371474  48.6899212
  33.3690477   5.2209674  62.6764935  34.0757244   4.7261705  62.8051869
  33.5578412   5.6618756  61.9467593  33.5018383   5.2128025  62.5873980
  29.8962860   8.9111236  44.2627257  29.5614228   9.5888158  43.8271479
  30.4089730   8.5216547  43.6744129  29.9228441   8.9535814  44.1114049
  29.4367151  10.8625505  50.2038369  29.8206531  11.4312403  49.6643144
  29.3726293  10.1375015  49.7244185  29.4840579  10.8400968  50.0532231
  32.9048581   1.0115193  55.7136130  33.4504541   1.6900279  55.7730100
  32.8465458   0.8702653  54.8537712  32.9764496   1.0907194  55.5948191
  26.0222656   8.5004259  51.1004483  26.1233019   7.6904613  51.4101610
  25.4264402   8.4061205  50.4704161  25.9495195   8.3669287  51.0530721
  34.6813650   2.4399800  46.5869858  34.5653176   3.1907486  47.0161996
  35.4769537   2.1823753  46.8365945  34.7818240   2.5134647  46.6873950
  25.8623396  13.4181848  52.5019339  26.5060851  13.8595012  52.8915497
  26.1879651  12.6135274  52.4149598  26.0055225  13.3647043  52.5464816
  19.2187701   4.5224545  50.7256816  18.9837885   3.6892198  50.6189085
  19.3573341   4.8029211  49.9118017  19.2043363   4.4408049  50.5899171
  26.5643976   6.4293823  47.8739200  26.8859817   6.9699030  47.2700509
  27.2116072   5.8590594  48.0061490  26.7070031   6.4252998  47.8046236
  28.6145684  -1.5690182  47.9573587  29.3125848  -1.3902055  48.4495050
  28.9298016  -2.0919843  47.3343977  28.7641021  -1.6196410  47.9375597
  21.2446921   0.2362558  55.8684693  21.1205618   0.8225003  56.5034512
  21.8965206  -0.2577247  56.1696968  21.3220570   0.2501362  56.0070622
  28.8033619   4.8180263  47.9453379  29.2427255   4.2097363  48.3908151
  28.6538282   4.4387636  47.1738844  28.8455085   4.6718734  47.8972546
  26.2705262   3.4124275  55.1472204  26.9154265   2.9196718  54.8283153
  26.5107039   3.5549061  55.9738282  26.4015847   3.3601717  55.2221737
  28.8091353   6.2579180  54.7979097  29.0914596   5.4630586  54.5765853
  29.5377514   6.7359768  54.8184158  28.9580917   6.2113777  54.7682112
  32.4042956   3.1707444  44.8984148  32.3194251   4.0268411  45.0433717
  32.8927339   2.8951768  45.5666307  32.4631853   3.2564765  45.0186229
  33.3361389  -0.2107762  46.3981883  32.8072860   0.0051872  47.0579189
  33.8586409   0.4828377  46.3182852  33.3349842  -0.0764625  46.4837482
  38.7909442   5.3638543  51.7714927  37.9607145   5.5749186  51.9348344
  38.7418694   4.5375597  51.4957211  38.6616177   5.2728149  51.7552293
  25.2260997   3.6855455  45.1989351  24.6418212   4.1905486  45.6055215
  24.8231092   3.4597842  44.4585943  25.0800300   3.7263703  45.1494376
  20.7805025   9.4010216  52.0013023  20.2972603  10.1260706  51.9772606
  21.5928344   9.6986346  52.1123180  20.8295773   9.5512570  52.0140302
  26.8519179   8.1942397  54.6062837  26.3346121   7.8349812  54.0024145
  27.5493571   7.6704571  54.6168903  26.8784760   8.0640085  54.5193096
  30.5082771   8.6437211  60.5679010  30.5966117   8.4563351  61.4157220
  30.9372484   7.9974640  60.1683857  30.5844874   8.5200219  60.6350762
  28.0753231   7.9268371  59.5496672  27.5124066   7.5140981  60.0736333
  28.8374255   7.8521276  59.9689816  28.1047680   7.8545771  59.6889673
  29.6838211  -0.0678893  43.6758272  29.9234215   0.1399091  42.8633615
  30.0054052  -0.8721384  43.7847216  29.7675369  -0.1564792  43.5718825
  23.6349223   9.9166392  52.1533302  24.3369802   9.4018381  52.2106059
  23.5546706  10.2440543  52.9580178  23.7272983   9.8880618  52.2806095
  38.2863400  -1.9891057  55.5665349  37.4491821  -1.9188870  55.8012943
  38.2551631  -1.9866562  54.6939651  38.1581682  -1.9780830  55.4724897
  22.9599998   6.1072744  51.6618910  23.7988897   6.3395677  51.7092672
  22.9911767   5.2377055  51.5925946  23.0881716   6.0129690  51.6583555
  23.5852701   6.5273619  55.9632216  24.1250926   6.3844750  56.6335588
  22.9022647   6.9270370  56.3316242  23.5644855   6.5653290  56.1166638
  33.0093586   2.2064620  51.1577240  33.7651101   2.6396134  51.1966149
  33.1155910   1.5569390  51.7311876  33.1363756   2.1742104  51.2475266
  36.0473757   6.0337897  51.9079643  35.6108989   6.0374639  52.6638615
  35.7136672   6.7143396  51.4759221  35.9336377   6.1350353  51.9560476
  30.6202831   8.0746230  63.2322794  31.4043247   8.1877078  63.5978536
  30.4199425   7.2487367  63.4281479  30.7068856   7.9692949  63.3157180
  18.9889846   2.7473910  56.1166637  18.7228261   1.9313027  56.2757628
  19.0028410   2.7927066  55.2462153  18.9514568   2.6330815  56.0120119
  22.8947593  -2.4541006  42.7318396  22.1805770  -2.7402826  43.1440828
  23.3791562  -2.1144380  43.3724783  22.8606956  -2.4459356  42.8874031
  30.7773224   9.9856332  56.8789249  29.9788470   9.7455832  57.1363118
  31.2259235  10.0370725  57.6256297  30.7247835   9.9578723  57.0274173
  39.1818103   2.7518817  50.7999281  39.8434537   2.1909485  50.6995189
  38.5409515   2.2570848  51.1251972  39.1846971   2.5955226  50.8331621
  30.0694911   6.0488948  43.1080204  30.4846059   5.7173972  42.4164700
  29.2386841   5.8157851  42.9800340  30.0082920   5.9660204  42.9871051
  19.3983260   3.5332689  53.3978382  19.2158833   3.5079575  52.5450674
  20.1332929   4.0031627  53.4367291  19.4797324   3.5994052  53.2776300
  35.4682934   3.7684199  50.5411269  35.7038523   3.9129398  49.7138120
  35.6172498   4.5326607  50.9342783  35.5248737   3.9023254  50.4774873
  37.2973391   2.6085865  48.3780873  37.6281608   3.1413505  47.7720968
  37.8706479   2.6624753  49.0342824  37.4307070   2.6955434  48.3858655
  32.5105280   0.4550768  49.0604453  32.6052134   1.1940062  49.5144079
  31.8864123   0.0268243  49.4939018  32.4314310   0.5012089  49.1912601
  30.7657754   3.6336981  59.7094734  31.3396615   2.9964225  59.8643298
  30.6872557   3.6341063  58.8404392  30.8390988   3.5402092  59.6041145
  19.3654170   0.4126190  53.5477448  19.9427673   0.2762641  54.1869694
  18.6668232  -0.0438026  53.8023033  19.3475191   0.3248456  53.6799738
  32.7628301   2.2999508  42.2941405  32.6808464   2.3701695  43.1596392
  33.4008022   2.8629252  42.1025146  32.8448138   2.3938479  42.3931355
  26.1221472   2.0660246  51.7615932  25.8640716   1.2331981  51.7347231
  26.1769955   2.2917859  50.9208432  26.0921250   1.9758017  51.6336068
  25.0956184  -0.3801992  52.2480826  24.5205776  -0.2209823  52.8844787
  24.7191861  -1.0166583  51.7849277  24.9558997  -0.4504179  52.2735385
  28.7629473  -1.9078643  57.1073205  28.3743906  -2.3324425  56.4525396
  28.0984171  -1.6596493  57.6150231  28.6076401  -1.9339921  57.0861073
  29.8668411   2.3219962  45.3050012  30.6809050   2.6134855  45.1932783
  29.8027552   1.6679824  44.7308305  29.9771150   2.2685157  45.2038849
  36.0877901   5.0045958  59.7179587  35.8516539   4.1734023  59.5991648
  36.7321130   4.9531565  60.3034432  36.1472572   4.8743646  59.7865481
  25.7376320   5.7941479  50.4322324  26.3750266   5.5553227  50.9774117
  26.1631391   5.9978638  49.6975484  25.8952486   5.7892490  50.4039481
  20.4288962   8.0329816  54.3156628  20.4693107   8.3044667  53.4876407
  20.9883486   8.5571724  54.7314415  20.5172308   8.1505571  54.2548516
  26.3779135   1.0143769  44.7697213  26.7624287   0.7951476  45.5213758
  26.1290755   1.8406715  44.8998290  26.3981207   1.1041916  44.8998290
  37.1114322   4.7890407  55.7807882  36.8060139   5.5218464  56.1421197
  36.3920538   4.3828336  55.5000668  36.9601664   4.8372140  55.7921019
  28.1197791   6.2713902  52.1116110  28.1936800   6.1089074  52.9657960
  28.9367298   6.4604092  51.8676592  28.2514150   6.2750644  52.2014136
  42.8116114   1.4283408  55.1076226  42.7440614   1.4479367  54.2378813
  42.7971777   2.2713735  55.3331897  42.7994871   1.5557142  55.0128703
  21.8803548   6.6171765  49.1410554  21.0541666   6.8633502  49.0144832
  21.9415539   6.5383846  50.0072612  21.7677715   6.6416714  49.2499498
  26.6602377   9.2348645  46.8429583  26.9500676   8.8437627  46.1188810
  27.3905858   9.4165350  47.2834859  26.8109261   9.2042459  46.8012390
  40.5974732   0.2027794  53.3822820  41.1482653  -0.4304137  53.6219913
  40.5818847   0.7343187  54.0738325  40.6759928   0.1876742  53.5201679
  27.2497122   4.0366391  57.9282714  26.7508816   4.7482159  58.0067602
  28.0597347   4.3567058  57.8900876  27.2953229   4.1893240  57.9339282
  24.6008293  11.2116028  49.9089733  24.3808588  10.9213382  50.7016400
  24.3802815  10.5530983  49.3807646  24.5355887  11.0715736  49.9478642
  23.5125240   3.2989344  52.1745435  23.2238489   2.6726815  52.7091162
  24.3808588   3.2409632  52.2410115  23.5985492   3.1976888  52.2636389
  34.3003138  -1.5575873  52.4927417  33.9567904  -2.2785537  52.8434666
  34.3996180  -1.7662021  51.6505775  34.2645181  -1.6951669  52.4199097
  26.7676248  12.5845418  48.6920426  27.4200306  12.0521860  48.9211452
  26.0701857  12.2314070  49.0788300  26.7606966  12.4534941  48.7832593
  23.7157513   4.9384595  48.0987800  24.4703481   5.3197634  48.3123262
  23.1228126   5.3895739  48.5534496  23.7394227   5.0613423  48.1970678
  34.7616167   4.9049832  48.0351405  35.3274199   5.5643041  47.9509948
  34.1144070   5.2499530  48.5067807  34.7494923   5.0531773  48.0924161
  25.0355740   6.1093157  53.4727915  24.5136493   6.2493448  54.1579780
  25.4229760   5.3503821  53.6630033  25.0159441   6.0178680  53.6028992
  31.2322745   7.8488616  47.4588484  30.9909421   7.1156476  47.0515549
  31.4124078   8.3975473  46.8054817  31.2230369   7.8211007  47.3018707
  26.4622066   3.1397176  48.8709406  26.2664848   3.7471910  48.2769709
  26.6856411   2.4465120  48.3901080  26.4656707   3.1274701  48.7125487
  24.8600596   0.0251913  48.9890275  25.5823247   0.1893072  48.5294081
  24.3808588   0.7461578  48.8829614  24.8964326   0.1550143  48.9055889
  32.8194103  -3.6384288  54.3686960  31.9805204  -3.6123009  54.1325223
  32.8898470  -2.9913552  54.9492306  32.7062497  -3.5388162  54.4196076
  22.5108212   2.4309986  58.0944415  23.0229309   2.7094239  57.4453174
  22.2244555   3.1699280  58.4607228  22.5443075   2.5812340  58.0534293
  36.6951627   1.5683699  51.6548201  36.6085601   1.7239125  52.5082980
  36.2402107   2.2121775  51.2807606  36.6154884   1.6859454  51.7255308
  30.5677443  -1.1105554  50.2773761  30.3212157  -1.1909803  51.1110550
  30.8962566  -1.8952086  50.0836288  30.5798687  -1.2379289  50.3721284
  34.4625492   5.5977805  54.0660542  34.3239851   6.2958851  54.5709284
  33.6825490   5.4426462  53.7096724  34.3268719   5.6777972  54.0886816
  32.8003577   1.8974181  60.3182924  32.7951615   1.0253997  60.3225350
  33.5064571   2.0962350  59.8452379  32.9048581   1.7978055  60.2489959
  26.5274470   1.6251165  59.6896744  26.6717846   2.2052373  59.0539854
  26.8750119   2.0027461  60.3946599  26.6001932   1.7671869  59.6995739
  28.6994388   0.8241333  57.4721876  27.9517702   1.0172347  57.0670154
  28.8535913  -0.0013447  57.2345997  28.6116815   0.7306444  57.3767281
  25.6002225   9.8153937  56.5557771  25.7491789   9.2556852  55.9031175
  26.3802227   9.8945938  56.9390290  25.7376319   9.7439502  56.5154720
  35.9578865   4.9556059  44.8277041  35.5785673   4.1693197  44.8206331
  35.2945110   5.5042916  44.6848686  35.8037339   4.9200883  44.8057838
  28.1255526   9.9868579  57.8342262  28.0499197   9.3177390  58.3893050
  28.0545385  10.6886368  58.3482928  28.1036133   9.9913487  57.9919110
  28.7825773   8.5069578  48.6665868  29.5475664   8.2379222  48.3448532
  28.6803863   8.0219589  49.3835930  28.8807268   8.3959143  48.7245695
  26.8178543  -3.2906012  55.2059103  26.0274617  -3.4714552  55.5276439
  27.2139165  -4.0679060  55.1889398  26.7595419  -3.4318551  55.2511652
  31.3044433   5.5381762  40.6465817  32.0717419   5.5981887  40.2371669
  30.8575742   4.9662203  40.1622135  31.3517861   5.4618338  40.5143527
  32.2022229   4.3436418  52.9318549  31.5267231   4.1121650  53.4331936
  32.2114605   3.7357601  52.3060654  32.1040733   4.2195343  52.9134701
  29.3316373  -0.8145753  59.6882602  29.2675514   0.0464203  59.5602739
  29.4713561  -1.1313760  58.8878154  29.3431843  -0.7345587  59.5510815
  34.2038963   7.2001550  45.1628727  34.2858801   8.0068536  44.8390178
  34.6888706   7.2197509  45.8869501  34.2876121   7.3222213  45.2215626
  28.0135467   1.8786386  53.8298805  27.5897716   2.0790885  53.0937823
  27.8380322   1.0315234  53.9423105  27.9246347   1.7835168  53.7372495
  27.5147160  13.3936899  56.2920262  28.0043091  12.6947688  56.1095927
  26.9431393  13.0960769  56.8796320  27.5031690  13.2463123  56.3521303
  23.3017912   2.3738438  49.2626778  23.4582531   2.3085240  50.1182770
  23.6418505   3.1486990  49.0505457  23.3751147   2.4787636  49.3581372
  29.8397056   1.7496321  48.1320141  30.3812602   1.2466702  48.5958761
  30.1543615   1.6961516  47.3209626  29.9661453   1.6675742  48.0803953
  33.7114164   5.9598969  65.2447053  34.5249029   5.6884117  65.4052186
  33.5509130   5.6606509  64.4407249  33.8084112   5.8753895  65.1492459
  28.0083506   7.1413673  45.4160169  28.0776326   6.2828211  45.5553169
  28.7871961   7.3585554  45.0879193  28.1336356   7.0466537  45.3877326
  30.9886326  -3.3567374  58.1842441  31.2028295  -3.9956460  57.6305795
  30.3720225  -2.9121550  57.7550303  30.9291655  -3.3857231  58.0392872
  32.3990994   9.5651374  49.6296662  32.0070785   9.2618089  48.9119528
  32.5544066  10.4020464  49.4401616  32.3644583   9.6435211  49.4953159
  19.8752173  -0.4426612  49.5787545  20.2551138  -0.0242067  48.9147812
  19.3007538   0.1386844  49.8856388  19.8463498  -0.2948753  49.5264286
  33.1525414  -1.7478309  59.1225748  32.3402095  -2.0552419  59.2038921
  33.6115348  -2.2279309  59.6868461  33.1005799  -1.8641817  59.2180343
  32.5630668   6.1301363  49.5702693  32.2045323   6.3016006  50.3466725
  32.0769379   6.5914569  49.0130691  32.4389365   6.2240334  49.6027962
  27.3519034   1.8100528  42.1102927  27.6411559   2.5865411  42.3846501
  27.4390833   1.2989260  42.8117426  27.4073290   1.8492447  42.2545425
  33.7235408   7.0205259  60.5169894  34.3615128   6.5265454  60.1832350
  33.0809499   6.9482659  59.9322120  33.7229634   6.9364267  60.3812249
  35.4492408  -1.1305595  55.0835809  35.0220016  -1.2179247  54.3283909
  34.8118461  -1.0227820  55.6690653  35.2922015  -1.1272935  55.0581251
  33.7789664   7.7125067  57.1575250  34.5682043   7.3614132  57.2777332
  33.9533262   8.5261456  56.8951884  33.9209946   7.7810924  57.1363118
  23.5182975   1.1233793  54.2103039  22.6770981   1.0237667  54.4181933
  23.7272983   1.8929273  54.5617360  23.4247667   1.2225836  54.2930354
  20.9958542  -1.2546670  52.0387790  20.6015239  -1.1803658  51.2637900
  20.4398659  -0.8688724  52.5896152  20.8561354  -1.1864896  52.0055450
  27.3299640  -0.9484808  53.4600637  27.0262777  -1.5028820  54.0611044
  26.6279060  -0.7692598  52.9728671  27.1815849  -1.0040026  53.4770342
  26.3865737  -3.6384288  48.0245339  26.6625471  -4.3565376  47.6122906
  26.9864406  -3.0399368  47.8166445  26.5159001  -3.6563917  47.9326100
  25.3917991   6.2664913  58.1672735  25.2838346   6.2766975  59.0334793
  25.6013772   7.0919693  57.9777688  25.4068102   6.3905988  58.2676826
  23.4091783   3.5177555  55.6294672  22.8179716   4.1587053  55.5997687
  24.1712806   3.9415172  55.6025972  23.4340043   3.6753394  55.6209819
  39.5282204   3.3483325  56.6271950  39.5865328   3.7969974  57.3731927
  38.8948672   3.7582138  56.1902030  39.4433499   3.4757059  56.6724499
  33.1681299   8.9686867  53.0626697  32.9700988   9.4577681  52.3682908
  32.5469010   9.1728108  53.6410830  33.0468863   9.0703405  53.0449920
  27.2289277   0.7371764  47.4036941  27.9731322   1.1246040  47.6419891
  27.3749973  -0.1070811  47.5677429  27.3599862   0.6702236  47.4630911
  30.2167153  -3.6902763  53.3030860  29.7427107  -4.2161001  53.8136171
  30.5885289  -4.2373290  52.7345722  30.2017042  -3.8486767  53.2946007
  36.4803884   1.3699613  54.7137641  36.2402107   0.5306028  54.7180067
  36.9595891   1.4499779  55.4378414  36.5156067   1.2581012  54.8212443
  32.1450653  -2.7966209  46.3656614  31.6173671  -2.7137465  45.6762323
  32.6046361  -2.0548337  46.3621259  32.1352503  -2.6745546  46.2631309
  38.4809071  -1.8498930  52.6666900  38.2418841  -1.8903096  51.8287684
  38.6442972  -1.0027778  52.7932621  38.4699374  -1.7306845  52.5620382
  35.0855101   2.5351019  58.5971945  35.8089300   2.0823545  58.4182965
  34.8205063   2.8155685  57.8144273  35.1536374   2.5101988  58.4550660
  23.9541969  -2.8688807  55.3324824  23.3295039  -2.8570415  54.7250777
  23.6187564  -2.3928632  55.9816064  23.8127461  -2.7970290  55.3381393
  20.6667645   5.1911653  56.7728588  20.1367569   4.5004092  56.8223563
  20.9392738   5.1821838  55.9441297  20.6292367   5.0878784  56.6576004
  31.6987735   5.7737355  45.4966271  32.4221934   6.2395468  45.3530844
  31.2588326   5.8410965  44.7463868  31.7403427   5.8521192  45.3651052
  30.8673890   2.6334897  56.7466960  30.2530883   2.0892948  57.0415595
  31.3841175   2.1199134  56.2672776  30.8529553   2.4771306  56.7191188
  30.1070187   3.7039167  54.4811259  29.6797796   3.0788886  54.0476694
  30.0995132   3.4214089  55.3070266  30.0429329   3.5691948  54.5391086
  15.9463487   1.8639417  54.1296937  15.8406936   1.8186261  53.2649021
  15.1963707   2.2093197  54.4111222  15.8199090   1.9080325  54.0434266
  26.1371583  -0.1760750  56.3733436  25.3063512  -0.0086932  56.1668684
  26.0823100  -0.5524799  57.1582321  26.0060998  -0.2071019  56.4581964
  24.5107627  -1.9005159  46.9023554  24.6510588  -1.4032694  47.6052195
  25.0090159  -2.6018864  47.0437767  24.6048708  -1.9303180  47.0275133
  24.5407849  -1.0338048  44.2316130  25.1752928  -0.4377622  44.1665592
  24.6233460  -1.3334590  45.0462001  24.6464400  -0.9897139  44.3419217
  37.5190415   1.4977430  57.1002495  38.1108255   2.1374681  57.1320693
  37.9549409   0.8000467  57.3894561  37.6708846   1.4895780  57.1483327
  26.1186832  -5.1024072  44.2061572  26.4402673  -5.5820990  43.5520835
  26.3813776  -4.2924426  44.0152384  26.2052857  -5.0534174  44.0817065
  29.3483805   5.9194802  57.7260389  28.8408896   6.4730649  58.1701019
  29.0510451   5.9803092  56.9079163  29.2288690   6.0101113  57.6708845
  21.0460837   1.1629793  47.5005677  21.5553066   1.7594301  47.8816982
  21.5195109   0.8955767  46.8182096  21.1904213   1.2115609  47.4560199
  31.9591585   9.8358060  45.6564332  31.2420895   9.6618922  45.1911569
  32.6098323   9.6010632  45.1239818  31.9493435   9.7753852  45.5093550
  34.5439556  -1.2877352  49.4005637  33.8730746  -0.7447649  49.2718703
  35.2379306  -0.8182496  49.1587332  34.5468424  -1.1379080  49.3461165
  28.5926290  10.8519360  54.6317395  28.3691944  10.0938190  55.0001422
  28.1036133  10.8817382  53.9097835  28.4869739  10.7441585  54.5794136
  23.4051369  -2.2013948  50.3678857  22.6863358  -1.7849816  50.6351720
  23.7763731  -1.6359709  49.8170495  23.3543300  -2.0564667  50.3261664
  32.7050949  -1.5686099  56.2580853  32.6848877  -1.7502804  57.1115632
  32.7530150  -0.6974081  56.2340436  32.7085590  -1.4669561  56.3804147
  30.6497279   5.0201093  62.1829329  30.6093134   4.3750770  61.5974485
  31.4620598   4.9637710  62.4954741  30.7640433   4.9160060  62.1426278
  27.2404747  11.0719819  52.0854480  26.8265145  10.4093949  51.6958322
  27.9252121  11.2197677  51.5650174  27.2803119  10.9960477  51.9510977
  30.6070041  10.2309904  52.8378097  30.2086324  10.3412174  52.0698917
  29.9921261  10.4391970  53.4204656  30.4568930  10.2783472  52.8109396
  29.1797943  -3.1615948  45.7052236  28.5862782  -2.8398952  45.1536803
  29.2173221  -4.0074853  45.4973343  29.0972332  -3.2391620  45.5935008
  32.0555760  -3.2036444  49.1353987  31.8269453  -3.1803742  48.2932345
  32.3153836  -4.0278977  49.2548997  32.0601948  -3.3220364  49.0279184
  25.1100522  -4.6659897  50.4308182  25.5857888  -4.3042818  49.7958363
  24.6089122  -4.0103430  50.7108325  25.1065881  -4.5165709  50.3784923
  38.3411884   4.8061871  46.2221187  38.7245489   5.5553227  46.4519284
  37.5455997   5.0527690  45.9633176  38.2805666   4.9531564  46.2178761
  27.1527175  -2.5218698  43.7981566  27.5326140  -2.5039069  43.0132681
  26.4119771  -2.0764709  43.6772414  27.0996013  -2.4536923  43.6645134
  32.5053318   0.4660995  53.0393352  33.0006983  -0.2516010  52.9997372
  31.6953094   0.1631793  52.9247839  32.4597211   0.3158642  53.0167078
  27.9511929   4.3158809  45.1890356  27.1423252   3.9925482  45.1423666
  28.4586838   3.6092031  45.1218605  27.9061596   4.1640125  45.1720651
  18.5802207   1.7431002  50.9137721  17.7147726   1.7316692  50.8020492
  18.6801022   1.5561225  51.7608860  18.4676374   1.7137063  51.0226665
  34.5705137   3.2164683  55.7270481  34.9960208   2.6939105  55.1740906
  34.2062057   3.8145520  55.2059104  34.5791739   3.2274910  55.5679490
  24.2059216  11.5128900  54.4867826  24.5205775  12.3265289  54.4945608
  24.6152630  11.1279119  55.1549985  24.3127314  11.5757603  54.5871918
  31.1583736   6.9298947  52.0571638  31.6294914   7.6439210  52.2261623
  31.4943915   6.3297697  52.5931508  31.2778851   6.9470411  52.1604014
  33.2460721   8.5400260  64.2363710  33.3557686   7.7508821  64.5920457
  33.5751617   8.4506197  63.4338048  33.3113127   8.4106113  64.1706101
  31.7957682   6.7216881  58.8199331  31.2478628   6.0974765  58.5519396
  32.2570711   6.9111153  58.1043410  31.7824892   6.6575931  58.6749762
  21.5472237   5.4602009  54.1346434  22.1517094   5.4197843  53.5060255
  21.3399549   6.3073161  54.1650490  21.6061134   5.5790011  54.0462551
  31.3616009   7.7267954  55.3508672  32.1814383   7.5830920  55.6124967
  31.0810086   8.3514153  55.8925110  31.4412752   7.7978306  55.4696611
  16.7823519   4.4436626  54.0045358  16.6847797   3.6332898  54.3135414
  17.5652389   4.4228420  53.6191626  16.8839655   4.3203716  53.9932221
  41.0329344  14.4708457  53.0704479  40.1767239  14.6316955  53.1213595
  41.0796998  13.6000521  53.0909540  40.9128455  14.3659258  53.0810545
  44.3423061  20.7394982  62.6764935  45.0489828  20.2447013  62.8051869
  44.5310996  21.1804064  61.9467593  44.4750966  20.7313333  62.5873980
  43.8781165  16.5300501  55.7136130  44.4237125  17.2085587  55.7730100
  43.8198041  16.3887961  54.8537712  43.9497079  16.6092502  55.5948191
  36.8355979  28.9367156  52.5019339  37.4793435  29.3780320  52.8915497
  37.1612235  28.1320582  52.4149598  36.9787808  28.8832351  52.5464816
  30.1920284  20.0409853  50.7256816  29.9570469  19.2077506  50.6189085
  30.3305925  20.3214519  49.9118017  30.1775947  19.9593357  50.5899171
  32.4910372  12.2095584  53.6241124  31.8715403  11.6188231  53.4551139
  32.3894235  12.8007019  52.9905447  32.3848047  12.2099666  53.5046114
  39.5878267  13.9495126  47.9573587  40.2858432  14.1283253  48.4495050
  39.9030600  13.4265465  47.3343977  39.7373604  13.8988898  47.9375597
  32.2179505  15.7547866  55.8684693  32.0938201  16.3410311  56.5034512
  32.8697789  15.2608061  56.1696968  32.2953154  15.7686670  56.0070622
  39.7766203  20.3365571  47.9453379  40.2159838  19.7282671  48.3908151
  39.6270865  19.9572944  47.1738844  39.8187668  20.1904042  47.8972546
  37.2437846  18.9309582  55.1472204  37.8886848  18.4382026  54.8283153
  37.4839623  19.0734369  55.9738282  37.3748431  18.8787025  55.2221737
  39.7823937  21.7764488  54.7979097  40.0647180  20.9815894  54.5765853
  40.5110097  22.2545076  54.8184158  39.9313501  21.7299085  54.7682112
  37.7605131   9.3187522  52.0394862  37.4308461   9.7698666  51.3698561
  37.0850133   9.2403686  52.5867868  37.6115567   9.3738657  52.0218085
  44.9681539   5.3073045  50.2844472  44.6534980   5.9976524  50.7164895
  44.4508480   5.2517827  49.5829973  44.8446009   5.4007934  50.2441422
  49.7642025  20.8823851  51.7714927  48.9339728  21.0934494  51.9348344
  49.7151278  20.0560905  51.4957211  49.6348761  20.7913457  51.7552293
  36.1993580  19.2040763  45.1989351  35.6150795  19.7090794  45.6055215
  35.7963675  18.9783150  44.4585943  36.0532884  19.2449011  45.1494376
  31.7537609  24.9195524  52.0013023  31.2705187  25.6446014  51.9772606
  32.5660927  25.2171654  52.1123180  31.8028357  25.0697878  52.0140302
  37.8251763  23.7127705  54.6062837  37.3078705  23.3535120  54.0024145
  38.5226154  23.1889879  54.6168903  37.8517344  23.5825393  54.5193096
  41.4815355  24.1622519  60.5679010  41.5698701  23.9748659  61.4157220
  41.9105067  23.5159948  60.1683857  41.5577457  24.0385526  60.6350762
  39.0485815  23.4453679  59.5496672  38.4856649  23.0326289  60.0736333
  39.8106838  23.3706584  59.9689816  39.0780263  23.3731079  59.6889673
  40.6570795  15.4506415  43.6758272  40.8966798  15.6584399  42.8633615
  40.9786636  14.6463924  43.7847216  40.7407953  15.3620516  43.5718825
  35.9661085   7.3799811  47.5217810  36.7207053   7.7478128  47.2834860
  35.7888619   7.7539365  48.2896989  36.0515563   7.4897999  47.6002698
  34.6081806  25.4351700  52.1533302  35.3102385  24.9203689  52.2106059
  34.5279289  25.7625851  52.9580178  34.7005567  25.4065926  52.2806095
  49.2595984  13.5294251  55.5665349  48.4224405  13.5996438  55.8012943
  49.2284215  13.5318746  54.6939651  49.1314266  13.5404478  55.4724897
  35.6560713  15.6727287  61.2813718  35.8281216  15.5633181  62.1298999
  36.1930070  16.3181692  61.0444910  35.7605717  15.7519289  61.3718814
  34.3218150   9.7870130  44.2195923  34.1393723  10.0042010  43.3936915
  35.1843763   9.9009142  44.2754537  34.4222739   9.8360028  44.1050410
  33.9332582  21.6258052  51.6618910  34.7721481  21.8580985  51.7092672
  33.9644351  20.7562363  51.5925946  34.0614299  21.5314998  51.6583555
  34.5585285  22.0458927  55.9632216  35.0983509  21.9030058  56.6335588
  33.8755231  22.4455678  56.3316242  34.5377438  22.0838598  56.1166638
  40.0017869   6.7896540  47.2544946  40.7304029   6.6112495  46.8083103
  40.0912762   7.6314620  47.4652124  40.1224531   6.8880419  47.2198464
  43.9826169  17.7249928  51.1577240  44.7383684  18.1581442  51.1966149
  44.0888494  17.0754697  51.7311876  44.1096340  17.6927412  51.2475266
  47.0206341  21.5523205  51.9079643  46.5841572  21.5559947  52.6638615
  46.6869256  22.2328704  51.4759221  46.9068960  21.6535661  51.9560476
  41.5935414  23.5931538  63.2322794  42.3775831  23.7062386  63.5978536
  41.3932009  22.7672675  63.4281479  41.6801440  23.4878257  63.3157180
  29.9622430  18.2659218  56.1166637  29.6960845  17.4498335  56.2757628
  29.9760994  18.3112373  55.2462153  29.9247152  18.1516123  56.0120119
  46.9403823   8.5937033  54.1509071  47.5829732   8.6635137  54.7370987
  47.1926844   7.9266256  53.6488613  47.0725956   8.5063381  54.1636350
  33.8680177  13.0644302  42.7318396  33.1538354  12.7782482  43.1440828
  34.3524145  13.4040928  43.3724783  33.8339540  13.0725952  42.8874031
  34.7121036  11.8037596  58.7633645  34.0192833  11.3334576  59.0094377
  35.3281363  11.5775901  59.3375352  34.7005566  11.7004728  58.8842798
  41.7505807  25.5041640  56.8789249  40.9521053  25.2641140  57.1363118
  42.1991819  25.5556033  57.6256297  41.6980419  25.4764031  57.0274173
  50.1550687  18.2704125  50.7999281  50.8167121  17.7094793  50.6995189
  49.5142099  17.7756156  51.1251972  50.1579554  18.1140534  50.8331621
  30.3715843  19.0517997  53.3978382  30.1891416  19.0264883  52.5450674
  31.1065512  19.5216935  53.4367291  30.4529907  19.1179360  53.2776300
  46.4415517  19.2869507  50.5411269  46.6771107  19.4314706  49.7138120
  46.5905081  20.0511915  50.9342783  46.4981321  19.4208562  50.4774873
  33.4361595  15.7703000  59.9060490  34.1601567  15.7556031  60.3925385
  33.5377731  16.4798355  59.4082459  33.5579804  15.8727703  59.9039277
  40.8106544  19.2502085  64.7709437  40.0179525  19.5645597  64.9562057
  40.9255471  19.4653553  63.9330222  40.7101955  19.3285921  64.6747772
  43.4837863  15.9736076  49.0604453  43.5784718  16.7125370  49.5144079
  42.8596707  15.5453551  49.4939018  43.4046893  16.0197396  49.1912601
  41.7390337  19.1522289  59.7094734  42.3129199  18.5149533  59.8643298
  41.6605141  19.1526371  58.8404392  41.8123572  19.0587400  59.6041145
  30.3386754  15.9311498  53.5477448  30.9160256  15.7947949  54.1869694
  29.6400815  15.4747282  53.8023033  30.3207775  15.8433764  53.6799738
  37.0954056  17.5845554  51.7615932  36.8373300  16.7517288  51.7347231
  37.1502539  17.8103167  50.9208432  37.0653834  17.4943325  51.6336068
  42.1755106   9.6874004  51.8620024  41.4711433   9.1983190  52.0203943
  42.2240080   9.6996479  50.9908469  42.0785157   9.6163652  51.7559364
  36.0688768  15.1383316  52.2480826  35.4938359  15.2975484  52.8844787
  35.6924444  14.5018725  51.7849277  35.9291580  15.0681129  52.2735385
  39.7362057  13.6106665  57.1073205  39.3476489  13.1860883  56.4525396
  39.0716755  13.8588815  57.6150231  39.5808984  13.5845386  57.0861073
  49.3785326  13.3681670  49.8821035  49.1221891  12.5561612  49.6918918
  50.2214640  13.3759237  49.6551222  49.4651351  13.2493668  49.8205852
  25.8145587  14.7823391  50.2625267  25.9005839  14.4055259  51.0438797
  26.4421384  14.4083836  49.7845225  25.9202138  14.6708873  50.3070744
  43.5588418   7.3081294  54.6197189  43.9398930   6.6259465  55.0065063
  42.7551702   7.0190896  54.4372853  43.4964880   7.1648343  54.6501245
  40.8400995  17.8405270  45.3050012  41.6541634  18.1320163  45.1932783
  40.7760136  17.1865132  44.7308305  40.9503734  17.7870465  45.2038849
  47.0610485  20.5231266  59.7179587  46.8249122  19.6919331  59.5991648
  47.7053714  20.4716873  60.3034432  47.1205156  20.3928954  59.7865481
  36.7108903  21.3126787  50.4322324  37.3482850  21.0738535  50.9774117
  37.1363975  21.5163946  49.6975484  36.8685069  21.3077798  50.4039481
  31.4021545  23.5515124  54.3156628  31.4425691  23.8229975  53.4876407
  31.9616070  24.0757032  54.7314415  31.4904891  23.6690879  54.2548516
  37.3511718  16.5329077  44.7697213  37.7356871  16.3136784  45.5213758
  37.1023338  17.3592023  44.8998290  37.3713791  16.6227223  44.8998290
  37.5180259   9.8135492  64.4859797  37.2033700  10.5835055  64.2229360
  37.1970191   9.2505748  63.9012024  37.4239178   9.8445761  64.3601147
  48.0846906  20.3075715  55.7807882  47.7792723  21.0403772  56.1421197
  47.3653121  19.9013644  55.5000668  47.9334248  20.3557448  55.7921019
  39.0930375  21.7899210  52.1116110  39.1669383  21.6274382  52.9657960
  39.9099881  21.9789400  51.8676592  39.2246734  21.7935952  52.2014136
  53.7848698  16.9468716  55.1076226  53.7173198  16.9664675  54.2378813
  53.7704360  17.7899043  55.3331897  53.7727454  17.0742450  55.0128703
  32.8536132  22.1357073  49.1410554  32.0274249  22.3818810  49.0144832
  32.9148123  22.0569154  50.0072612  32.7410299  22.1602022  49.2499498
  35.0712155   8.2026014  50.1005994  34.2034581   8.2748613  50.1663603
  35.3587360   9.0048093  50.2893969  34.9851904   8.3320161  50.1380760
  44.1945044   8.3503873  58.4317316  44.9398636   8.1613684  58.0180741
  43.7782349   8.8762111  57.8731172  44.2430018   8.4006019  58.2881889
  51.5707315  15.7213102  53.3822820  52.1215237  15.0881171  53.6219913
  51.5551430  16.2528495  54.0738325  51.6492511  15.7062050  53.5201679
  38.2229706  19.5551699  57.9282714  37.7241400  20.2667467  58.0067602
  39.0329930  19.8752366  57.8900876  38.2685813  19.7078548  57.9339282
  34.4857824  18.8174652  52.1745435  34.1971072  18.1912123  52.7091162
  35.3541172  18.7594939  52.2410115  34.5718075  18.7162196  52.2636389
  45.2735721  13.9609435  52.4927417  44.9300487  13.2399771  52.8434666
  45.3728764  13.7523287  51.6505775  45.2377764  13.8233639  52.4199097
  45.7348750  20.4235139  48.0351405  46.3006783  21.0828349  47.9509948
  45.0876654  20.7684838  48.5067807  45.7227507  20.5717081  48.0924161
  37.1496764  12.4132743  63.2245012  36.3396540  12.7190523  63.1134854
  37.6271451  13.1338326  63.3397596  37.1000243  12.5647345  63.2252083
  36.0088324  21.6278464  53.4727915  35.4869077  21.7678756  54.1579780
  36.3962344  20.8689129  53.6630033  35.9892024  21.5363988  53.6028992
  32.9979508  11.6784273  47.5422870  32.7104303  11.3085544  46.8054817
  33.6849976  12.1479128  47.2806575  33.0568405  11.6931243  47.3937946
  35.8333179  15.5437221  48.9890275  36.5555831  15.7078379  48.5294081
  35.3541172  16.2646886  48.8829614  35.8696910  15.6735451  48.9055889
  43.7926687  11.8801020  54.3686960  42.9537787  11.9062299  54.1325223
  43.8631054  12.5271756  54.9492306  43.6795080  11.9797146  54.4196076
  33.4840796  17.9495294  58.0944415  33.9961893  18.2279547  57.4453174
  33.1977138  18.6884588  58.4607228  33.5175659  18.0997647  58.0534293
  42.2395965   8.7786397  49.1014576  42.9422318   8.5794146  48.6234534
  41.9740154   8.0062340  49.4083419  42.3042597   8.6349363  49.0760017
  47.6684211  17.0869007  51.6548201  47.5818185  17.2424433  52.5082980
  47.2134690  17.7307082  51.2807606  47.5887467  17.2044762  51.7255308
  30.5707702  12.4565486  48.3908151  30.6723839  13.2591647  48.7189126
  31.3663589  12.2552822  48.0931232  30.7035608  12.5451384  48.3943506
  37.0024521  10.0421682  58.1545456  36.8107718  10.0576817  59.0044880
  37.8523117  10.2385357  58.1312111  37.1000243  10.0736034  58.2768751
  31.3871434  12.5712664  56.1329273  31.2456926  11.7196605  56.2573781
  31.6711998  12.6141324  55.3091479  31.4079280  12.4512414  56.0296897
  41.5410027  14.4079754  50.2773761  41.2944741  14.3275505  51.1110550
  41.8695150  13.6233222  50.0836288  41.5531270  14.2806019  50.3721284
  45.4358075  21.1163113  54.0660542  45.2972435  21.8144159  54.5709284
  44.6558073  20.9611770  53.7096724  45.3001302  21.1963280  54.0886816
  43.7736161  17.4159489  60.3182924  43.7684199  16.5439305  60.3225350
  44.4797154  17.6147658  59.8452379  43.8781165  17.3163363  60.2489959
  37.5007054  17.1436473  59.6896744  37.6450430  17.7237681  59.0539854
  37.8482702  17.5212769  60.3946599  37.5734515  17.2857177  59.6995739
  39.6726971  16.3426641  57.4721876  38.9250285  16.5357655  57.0670154
  39.8268496  15.5171861  57.2345997  39.5849399  16.2491752  57.3767281
  36.5734809  25.3339244  56.5557771  36.7224373  24.7742160  55.9031175
  37.3534811  25.4131246  56.9390290  36.7108903  25.2624810  56.5154720
  39.0988110  25.5053887  57.8342262  39.0231781  24.8362698  58.3893050
  39.0277969  26.2071675  58.3482928  39.0768716  25.5098795  57.9919110
  39.9128748  10.2377192  58.3617279  40.3701362  10.9701166  58.4890071
  39.9885077   9.8143657  59.1204535  39.9919718  10.2834430  58.4918356
  32.1561739  10.4843011  59.4506723  31.6203929   9.8723370  59.7667490
  32.2179504  11.0591147  60.1040390  32.0857372  10.4789939  59.5942150
  44.3856074   3.4167067  52.2311122  44.5039642   3.8743530  51.4978425
  44.2118250   2.6112328  51.9447340  44.3775245   3.3660839  52.0812056
  37.7911126  12.2279296  55.2059103  37.0007201  12.0470756  55.5276439
  38.1871749  11.4506248  55.1889398  37.7328002  12.0866757  55.2511652
  43.1754812  19.8621726  52.9318549  42.4999814  19.6306958  53.4331936
  43.1847189  19.2542909  52.3060654  43.0773317  19.7380651  52.9134701
  40.3048956  14.7039555  59.6882602  40.2408098  15.5649511  59.5602739
  40.4446144  14.3871548  58.8878154  40.3164427  14.7839721  59.5510815
  38.9868050  17.3971694  53.8298805  38.5630299  17.5976193  53.0937823
  38.8112906  16.5500542  53.9423105  38.8978931  17.3020476  53.7372495
  38.4879744  28.9122207  56.2920262  38.9775674  28.2132996  56.1095927
  37.9163976  28.6146077  56.8796320  38.4764274  28.7648431  56.3521303
  34.2750495  17.8923746  49.2626778  34.4315114  17.8270548  50.1182770
  34.6151088  18.6672298  49.0505457  34.3483730  17.9972944  49.3581372
  40.8129640  17.2681629  48.1320141  41.3545185  16.7652010  48.5958761
  41.1276199  17.2146824  47.3209626  40.9394037  17.1861050  48.0803953
  44.6846747  21.4784276  65.2447053  45.4981613  21.2069425  65.4052186
  44.5241714  21.1791816  64.4407249  44.7816696  21.3939203  65.1492459
  41.9618909  12.1617934  58.1842441  42.1760879  11.5228848  57.6305795
  41.3452808  12.6063757  57.7550303  41.9024239  12.1328077  58.0392872
  30.8484757  15.0758696  49.5787545  31.2283722  15.4943241  48.9147812
  30.2740122  15.6572152  49.8856388  30.8196082  15.2236555  49.5264286
  44.1257997  13.7706999  59.1225748  43.3134679  13.4632889  59.2038921
  44.5847932  13.2905999  59.6868461  44.0738382  13.6543491  59.2180343
  43.5363252  21.6486671  49.5702693  43.1777907  21.8201314  50.3466725
  43.0501963  22.1099876  49.0130691  43.4121949  21.7425642  49.6027962
  41.3533638   5.2717869  53.1729784  40.4827196   5.2456590  53.1263094
  41.6073979   5.0995061  52.3555630  41.2627198   5.2428013  53.0449921
  38.3251617  17.3285836  42.1102927  38.6144142  18.1050719  42.3846501
  38.4123416  16.8174568  42.8117426  38.3805874  17.3677755  42.2545425
  41.2211505  15.1767070  63.9054451  41.6911136  15.8009187  64.2922325
  41.2673385  14.5084046  64.4647665  41.2979381  15.1701751  64.0454522
  38.3782778   7.2824098  54.6303254  37.8621267   6.5904289  54.7554833
  37.8176707   7.9494875  54.5765853  38.2189292   7.2787355  54.6409320
  40.4475012   7.8217058  56.4596107  40.0606765   7.8466089  57.2409637
  39.9607949   7.2558736  56.0070624  40.3187521   7.7412809  56.5084011
  44.6967991  22.5390567  60.5169894  45.3347712  22.0450762  60.1832350
  44.0542083  22.4667967  59.9322120  44.6962218  22.4549575  60.3812249
  46.4224991  14.3879713  55.0835809  45.9952599  14.3006061  54.3283909
  45.7851044  14.4957488  55.6690653  46.2654599  14.3912373  55.0581251
  40.1132154   4.7084043  58.7506367  40.7425272   5.2444343  58.4727437
  40.2818016   4.6161402  59.6019933  40.2309948   4.7745406  58.8354895
  39.9146069   9.4955238  61.0232779  40.7419498   9.2240387  61.0791393
  39.9353915  10.2916080  61.3796597  40.0398919   9.5734992  61.0847961
  44.7522248  23.2310375  57.1575250  45.5414626  22.8799440  57.2777332
  44.9265846  24.0446763  56.8951884  44.8942530  23.2996232  57.1363118
  34.4915558  16.6419101  54.2103039  33.6503565  16.5422975  54.4181933
  34.7005566  17.4114581  54.5617360  34.3980251  16.7411144  54.2930354
  31.9691125  14.2638638  52.0387790  31.5747823  14.3381650  51.2637900
  31.4131242  14.6496584  52.5896152  31.8293938  14.3320412  52.0055450
  43.6056072   7.2419932  51.7191669  43.8105665   7.1742240  52.5648666
  43.2782496   8.0478753  51.6512846  43.5871320   7.3505872  51.8351324
  38.3032223  14.5700500  53.4600637  37.9995361  14.0156488  54.0611044
  37.6011644  14.7492710  52.9728671  38.1548433  14.5145282  53.4770342
  37.3598320  11.8801020  48.0245339  37.6358055  11.1619932  47.6122906
  37.9596990  12.4785940  47.8166445  37.4891585  11.8621390  47.9326100
  36.3650574  21.7850221  58.1672735  36.2570929  21.7952283  59.0334793
  36.5746356  22.6105001  57.9777688  36.3800685  21.9091295  58.2676826
  46.8589760   7.7951696  51.1994434  46.2464073   8.2822098  51.5848166
  46.9553935   7.1195187  51.7432085  46.7827657   7.7670005  51.3373292
  40.8608841   9.5514537  46.2991934  41.3152587   9.7225098  47.0239778
  41.3348887   8.9382648  45.8989709  40.9977161   9.4865422  46.3465695
  34.3824366  19.0362863  55.6294672  33.7912299  19.6772361  55.5997687
  35.1445390  19.4600480  55.6025972  34.4072627  19.1938701  55.6209819
  34.7784989  10.1964861  56.2962690  35.2386471  10.2703790  57.0337813
  34.8241096  10.9946115  55.9462511  34.8535544  10.3259008  56.3535446
  36.4268339  10.8631556  60.8634717  36.0353904  10.2164903  61.2990495
  36.5954201  11.4542991  61.4828972  36.3939249  10.8545824  61.0197423
  50.5014788  18.8668633  56.6271950  50.5597911  19.3155282  57.3731927
  49.8681255  19.2767446  56.1902030  50.4166083  18.9942367  56.6724499
  44.1413882  24.4872175  53.0626697  43.9433571  24.9762989  52.3682908
  43.5201594  24.6913416  53.6410830  44.0201447  24.5888713  53.0449920
  38.2021861  16.2557071  47.4036941  38.9463906  16.6431348  47.6419891
  38.3482557  15.4114497  47.5677429  38.3332446  16.1887544  47.4630911
  40.1201436   8.0507330  52.4368802  39.2737481   8.2230138  52.3110152
  40.1172569   7.2456674  52.7734631  39.9948586   7.9568359  52.4679929
  41.1899737  11.8282545  53.3030860  40.7159691  11.3024307  53.8136171
  41.5617872  11.2812018  52.7345722  41.1749626  11.6698541  53.2946007
  31.5672767  13.8254052  58.6714406  32.4298380  13.7249761  58.5851736
  31.2364550  13.2448761  58.1099978  31.6457963  13.7245678  58.5759812
  47.4536467  16.8884920  54.7137641  47.2134690  16.0491336  54.7180067
  47.9328474  16.9685087  55.4378414  47.4888651  16.7766320  54.8212443
  43.1183236  12.7219099  46.3656614  42.5906255  12.8047843  45.6762323
  43.5778944  13.4636971  46.3621259  43.1085087  12.8439762  46.2631309
  49.4541654  13.6686378  52.6666900  49.2151424  13.6282212  51.8287684
  49.6175556  14.5157530  52.7932621  49.4431958  13.7878463  52.5620382
  46.0587684  18.0536327  58.5971945  46.7821883  17.6008853  58.4182965
  45.7937647  18.3340993  57.8144273  46.1268958  18.0287295  58.4550660
  34.9274553  12.6496501  55.3324824  34.3027623  12.6614892  54.7250777
  34.5920148  13.1256676  55.9816064  34.7860045  12.7215018  55.3381393
  35.1116301  10.9921619  41.3897509  34.7629106  11.6441344  41.8529058
  34.6312747  10.9778732  40.6621380  34.9886545  11.0864673  41.3508600
  31.6400228  20.7096961  56.7728588  31.1100153  20.0189400  56.8223563
  31.9125322  20.7007146  55.9441297  31.6024951  20.6064092  56.6576004
  41.8406474  18.1520205  56.7466960  41.2263467  17.6078256  57.0415595
  42.3573759  17.6384442  56.2672776  41.8262136  17.9956614  56.7191188
  41.0802771  19.2224475  54.4811259  40.6530379  18.5974194  54.0476694
  41.0727715  18.9399397  55.3070266  41.0161912  19.0877256  54.5391086
  34.1965298  14.2589648  57.5499693  34.3558785  13.5032972  57.9551415
  34.0158192  14.8080588  58.2040430  34.1930657  14.2283462  57.7062399
  42.1385601   6.4250884  58.1050482  41.6426162   6.6214558  57.4142049
  42.8954663   6.8243552  57.9339284  42.1772426   6.5128618  57.9770619
  39.4088481  10.0993230  54.6953793  39.4330968   9.5653342  54.0066573
  39.6599954   9.5910539  55.3579383  39.4498399   9.9454134  54.6918437
  26.9196071  17.3824725  54.1296937  26.8139520  17.3371569  53.2649021
  26.1696291  17.7278505  54.4111222  26.7931673  17.4265633  54.0434266
  35.6889803   8.8264048  54.0759537  35.7288175   9.3273255  54.7894244
  34.8639468   8.9174442  53.8065460  35.5729329   8.9145864  54.1410075
  37.8719416  18.3924788  62.1779832  37.0215046  18.5296502  62.3137476
  38.0347544  17.6588566  62.6227533  37.7703279  18.3038889  62.2635431
  37.1104166  15.3424558  56.3733436  36.2796096  15.5098376  56.1668684
  37.0555684  14.9660509  57.1582321  36.9793581  15.3114289  56.4581964
  34.9187950   8.8333451  62.0089847  35.5440653   8.2895584  62.2819279
  34.4638430   8.3528368  61.4397637  34.9436210   8.6822932  61.9651440
  35.5140433  14.4847260  44.2316130  36.1485512  15.0807685  44.1665592
  35.5966043  14.1850718  45.0462001  35.6196984  14.5288169  44.3419217
  48.4922998  17.0162738  57.1002495  49.0840839  17.6559988  57.1320693
  48.9281993  16.3185775  57.3894561  48.6441430  17.0081088  57.1483327
  37.0919415  10.4161236  44.2061572  37.4135257   9.9364318  43.5520835
  37.3546359  11.2260882  44.0152384  37.1785441  10.4651134  44.0817065
  40.3216388  21.4380110  57.7260389  39.8141479  21.9915957  58.1701019
  40.0243034  21.4988400  56.9079163  40.2021273  21.5286421  57.6708845
  42.4878570   9.8033430  56.5685052  42.9133642   9.3505956  55.9568578
  41.8735564   9.2493501  56.8449839  42.4607216   9.6547406  56.5190077
  32.0193420  16.6815101  47.5005677  32.5285650  17.2779609  47.8816982
  32.4927693  16.4141075  46.8182096  32.1636796  16.7300917  47.4560199
  40.9272793   6.2748530  49.9775629  40.2841111   6.1246176  50.5460767
  40.5872200   6.0290875  49.2124733  40.7817871   6.2160652  49.9478644
  45.5172140  14.2307956  49.4005637  44.8463330  14.7737659  49.2718703
  46.2111890  14.7002812  49.1587332  45.5201007  14.3806228  49.3461165
  39.5658873  26.3704668  54.6317395  39.3424528  25.6123498  55.0001422
  39.0768717  26.4002690  53.9097835  39.4602323  26.2626893  54.5794136
  45.6800267  10.6863840  52.3096010  46.0327877  10.2593563  52.9841809
  44.8215069  10.6014684  52.4397087  45.6049712  10.6108581  52.4291021
  34.3783952  13.3171360  50.3678857  33.6595941  13.7335492  50.6351720
  34.7496314  13.8825599  49.8170495  34.3275884  13.4620641  50.3261664
  43.6783533  13.9499209  56.2580853  43.6581460  13.7682504  57.1115632
  43.7262734  14.8211227  56.2340436  43.6818174  14.0515747  56.3804147
  41.6229863  20.5386401  62.1829329  41.5825718  19.8936078  61.5974485
  42.4353181  20.4823018  62.4954741  41.7373016  20.4345367  62.1426278
  41.5802625  25.7495212  52.8378097  41.1818908  25.8597482  52.0698917
  40.9653844  25.9577278  53.4204656  41.4301514  25.7968780  52.8109396
  40.1530527  12.3569360  45.7052236  39.5595366  12.6786356  45.1536803
  40.1905804  11.5110455  45.4973343  40.0704916  12.2793688  45.5935008
  47.1124327   5.8082252  53.2380323  46.6055192   5.1011391  53.1701500
  47.9091761   5.4775441  53.3681399  47.1551567   5.6555403  53.2479318
  43.0288343  12.3148864  49.1353987  42.8002036  12.3381566  48.2932345
  43.2886419  11.4906331  49.2548997  43.0334531  12.1964944  49.0279184
  37.3107572  14.1683337  58.7379087  36.7986475  13.5604520  59.0964118
  37.1387068  14.8839930  59.2053063  37.2097209  14.1846636  58.8595310
  32.1573286  12.6120912  61.3881449  31.9875877  13.2722287  60.8429655
  31.7139236  12.8227474  62.1093938  32.0672620  12.7406895  61.4143078
  36.0833106  10.8525410  50.4308182  36.5590472  11.2142490  49.7958363
  35.5821705  11.5081878  50.7108325  36.0798465  11.0019599  50.3784923
  41.1876642  12.0907582  61.1781342  41.7448072  11.8621391  60.5459808
  40.8637707  12.8513247  60.9016555  41.2223052  12.1691419  61.0437839
  29.0575351  15.5167778  56.6469938  28.5102070  14.8468424  56.7650807
  29.8467729  15.1497626  56.7113406  29.0927534  15.3632764  56.6738639
  38.9059759  15.1775235  62.1433350  39.6571086  15.4926912  62.4572904
  39.0982336  14.9754406  61.3167271  39.0451173  15.1942617  62.0676745
  38.1259759  12.9966610  43.7981566  38.5058724  13.0146239  43.0132681
  37.3852355  13.4420599  43.6772414  38.0728597  13.0648385  43.6645134
  45.7545049  11.3048801  49.3857145  45.7539276  11.1497458  50.2441421
  45.5501229  12.1511788  49.3298531  45.7244827  11.4069422  49.5045084
  27.8162320  14.7288586  53.8015962  27.6384081  14.2765195  54.5270877
  27.5281342  15.5314747  53.9854439  27.7475273  14.7811144  53.9359464
  43.4785901  15.9846303  53.0393352  43.9739567  15.2669298  52.9997372
  42.6685677  15.6817101  52.9247839  43.4329795  15.8343949  53.0167078
  29.5534790  17.2616310  50.9137721  28.6880310  17.2502000  50.8020492
  29.6533606  17.0746532  51.7608860  29.4408957  17.2322371  51.0226665
  45.5437720  18.7349991  55.7270481  45.9692792  18.2124413  55.1740906
  45.1794640  19.3330828  55.2059104  45.5524323  18.7460218  55.5679490
  35.1791800  27.0314208  54.4867826  35.4938359  27.8450597  54.4945608
  35.5885213  26.6464427  55.1549985  35.2859898  27.0942911  54.5871918
  42.1316320  22.4484255  52.0571638  42.6027498  23.1624518  52.2261623
  42.4676498  21.8483005  52.5931508  42.2511435  22.4655719  52.1604014
  44.2193304  24.0585568  64.2363710  44.3290270  23.2694129  64.5920457
  44.5484201  23.9691505  63.4338048  44.2845710  23.9291421  64.1706101
  39.0485815   7.2211726  59.0129733  39.1813720   6.4242719  59.3410708
  39.4330967   7.7478129  59.5928008  39.1242144   7.1811642  59.1473236
  42.7690266  22.2402189  58.8199331  42.2211212  21.6160073  58.5519396
  43.2303295  22.4296461  58.1043410  42.7557475  22.1761239  58.6749762
  42.1218170   4.1442052  55.6110826  41.3164134   4.0339781  55.9278664
  41.9924905   4.2454507  54.7540692  41.9838303   4.1425722  55.5318866
  45.5784130  10.3087544  56.2050523  44.9947119  10.8096750  55.7928090
  45.8988424   9.8017100  55.5714846  45.5397306  10.3079379  56.0509030
  38.1178930   9.2228138  46.4809198  38.9394624   9.3926451  46.2390893
  37.6548580   9.3775399  45.7575495  38.1710092   9.2709871  46.3380842
  36.7074261   7.2170901  57.2607627  37.2518674   6.8762027  57.8511968
  36.7611197   8.0756362  57.4028911  36.7963381   7.2926160  57.3689500
  32.5204820  20.9787317  54.1346434  33.1249678  20.9383151  53.5060255
  32.3132133  21.8258469  54.1650490  32.5793717  21.0975319  54.0462551
  42.3348592  23.2453262  55.3508672  43.1546966  23.1016228  55.6124967
  42.0542670  23.8699461  55.8925110  42.4145336  23.3163614  55.4696611
  27.7556102  19.9621934  54.0045358  27.6580381  19.1518206  54.3135414
  28.5384972  19.9413728  53.6191626  27.8572239  19.8389024  53.9932221
  58.8062243  30.9018114  48.3151548  58.7756247  31.7562750  48.4869818
  59.4043591  30.6013406  48.8737692  58.8899401  30.9834610  48.4226351
  52.0061928  29.9893765  53.0704479  51.1499823  30.1502263  53.1213595
  52.0529581  29.1185828  53.0909540  51.8861039  29.8844566  53.0810545
  55.3155644  36.2580290  62.6764935  56.0222411  35.7632321  62.8051869
  55.5043580  36.6989372  61.9467593  55.4483550  36.2498641  62.5873980
  54.8513749  32.0485808  55.7136130  55.3969709  32.7270895  55.7730100
  54.7930625  31.9073269  54.8537712  54.9229663  32.1277810  55.5948191
  43.4642955  27.7280892  53.6241124  42.8447987  27.1373539  53.4551139
  43.3626819  28.3192327  52.9905447  43.3580631  27.7284974  53.5046114
  50.5610851  29.4680434  47.9573587  51.2591016  29.6468561  48.4495050
  50.8763183  28.9450773  47.3343977  50.7106188  29.4174206  47.9375597
  43.1912088  31.2733173  55.8684693  43.0670785  31.8595619  56.5034512
  43.8430373  30.7793369  56.1696968  43.2685738  31.2871978  56.0070622
  48.7337714  24.8372830  52.0394862  48.4041044  25.2883974  51.3698561
  48.0582716  24.7588994  52.5867868  48.5848151  24.8923965  52.0218085
  55.9414122  20.8258353  50.2844472  55.6267563  21.5161832  50.7164895
  55.4241064  20.7703135  49.5829973  55.8178593  20.9193242  50.2441422
  60.7374609  36.4009158  51.7714927  59.9072312  36.6119802  51.9348344
  60.6883861  35.5746213  51.4957211  60.6081344  36.3098765  51.7552293
  60.2328567  29.0479559  55.5665349  59.3956988  29.1181746  55.8012943
  60.2016798  29.0504054  54.6939651  60.1046850  29.0589786  55.4724897
  46.6293296  31.1912595  61.2813718  46.8013800  31.0818489  62.1298999
  47.1662654  31.8367000  61.0444910  46.7338300  31.2704596  61.3718814
  57.9938924  37.0708513  51.9079643  57.5574156  37.0745255  52.6638615
  57.6601840  37.7514012  51.4759221  57.8801544  37.1720969  51.9560476
  52.5667998  39.1116846  63.2322794  53.3508414  39.2247694  63.5978536
  52.3664592  38.2857983  63.4281479  52.6534023  39.0063565  63.3157180
  57.9136407  24.1122341  54.1509071  58.5562315  24.1820445  54.7370987
  58.1659428  23.4451564  53.6488613  58.0458539  24.0248689  54.1636350
  45.6853620  27.3222904  58.7633645  44.9925416  26.8519884  59.0094377
  46.3013947  27.0961209  59.3375352  45.6738149  27.2190036  58.8842798
  61.1283270  33.7889433  50.7999281  61.7899704  33.2280101  50.6995189
  60.4874682  33.2941464  51.1251972  61.1312138  33.6325842  50.8331621
  57.4148101  34.8054815  50.5411269  57.6503690  34.9500014  49.7138120
  57.5637665  35.5697223  50.9342783  57.4713904  34.9393870  50.4774873
  44.4094178  31.2888308  59.9060490  45.1334151  31.2741339  60.3925385
  44.5110315  31.9983663  59.4082459  44.5312388  31.3913011  59.9039277
  59.2438558  33.6456481  48.3780873  59.5746775  34.1784121  47.7720968
  59.8171646  33.6995369  49.0342824  59.3772237  33.7326050  48.3858655
  51.7839128  34.7687393  64.7709437  50.9912109  35.0830905  64.9562057
  51.8988055  34.9838861  63.9330222  51.6834538  34.8471229  64.6747772
  52.7122921  34.6707596  59.7094734  53.2861782  34.0334841  59.8643298
  52.6337724  34.6711679  58.8404392  52.7856156  34.5772708  59.6041145
  53.1487689  25.2059312  51.8620024  52.4444016  24.7168498  52.0203943
  53.1972664  25.2181787  50.9908469  53.0517741  25.1348960  51.7559364
  50.7094640  29.1291973  57.1073205  50.3209073  28.7046191  56.4525396
  50.0449338  29.3774123  57.6150231  50.5541568  29.1030694  57.0861073
  60.3517909  28.8866978  49.8821035  60.0954474  28.0746919  49.6918918
  61.1947223  28.8944545  49.6551222  60.4383935  28.7678975  49.8205852
  54.5321002  22.8266602  54.6197189  54.9131513  22.1444773  55.0065063
  53.7284286  22.5376204  54.4372853  54.4697463  22.6833651  54.6501245
  58.0343069  36.0416574  59.7179587  57.7981706  35.2104639  59.5991648
  58.6786297  35.9902181  60.3034432  58.0937739  35.9114262  59.7865481
  48.4912842  25.3320800  64.4859797  48.1766283  26.1020363  64.2229360
  48.1702775  24.7691056  63.9012024  48.3971761  25.3631069  64.3601147
  59.0579489  35.8261023  55.7807882  58.7525306  36.5589080  56.1421197
  58.3385705  35.4198952  55.5000668  58.9066831  35.8742756  55.7921019
  64.7581281  32.4654023  55.1076226  64.6905782  32.4849983  54.2378813
  64.7436944  33.3084351  55.3331897  64.7460038  32.5927758  55.0128703
  46.0444739  23.7211322  50.1005994  45.1767164  23.7933921  50.1663603
  46.3319943  24.5233401  50.2893969  45.9584487  23.8505469  50.1380760
  55.1677628  23.8689181  58.4317316  55.9131220  23.6798992  58.0180741
  54.7514932  24.3947419  57.8731172  55.2162602  23.9191327  58.2881889
  62.5439899  31.2398410  53.3822820  63.0947820  30.6066479  53.6219913
  62.5284014  31.7713802  54.0738325  62.6225095  31.2247358  53.5201679
  49.1962289  35.0737007  57.9282714  48.6973983  35.7852775  58.0067602
  50.0062514  35.3937674  57.8900876  49.2418396  35.2263856  57.9339282
  56.2468305  29.4794743  52.4927417  55.9033071  28.7585079  52.8434666
  56.3461347  29.2708595  51.6505775  56.2110348  29.3418947  52.4199097
  48.1229347  27.9318051  63.2245012  47.3129123  28.2375831  63.1134854
  48.6004034  28.6523634  63.3397596  48.0732826  28.0832653  63.2252083
  54.7659270  27.3986328  54.3686960  53.9270371  27.4247607  54.1325223
  54.8363638  28.0457064  54.9492306  54.6527664  27.4982454  54.4196076
  44.4573379  33.4680602  58.0944415  44.9694476  33.7464855  57.4453174
  44.1709722  34.2069896  58.4607228  44.4908243  33.6182955  58.0534293
  53.2128549  24.2971705  49.1014576  53.9154901  24.0979453  48.6234534
  52.9472737  23.5247647  49.4083419  53.2775181  24.1534671  49.0760017
  58.6416794  32.6054315  51.6548201  58.5550769  32.7609741  52.5082980
  58.1867274  33.2492390  51.2807606  58.5620051  32.7230070  51.7255308
  47.9757105  25.5606990  58.1545456  47.7840302  25.5762125  59.0044880
  48.8255701  25.7570665  58.1312111  48.0732827  25.5921342  58.2768751
  42.3604018  28.0897972  56.1329273  42.2189510  27.2381912  56.2573781
  42.6444581  28.1326632  55.3091479  42.3811864  27.9697722  56.0296897
  52.5142610  29.9265062  50.2773761  52.2677324  29.8460813  51.1110550
  52.8427733  29.1418530  50.0836288  52.5263854  29.7991327  50.3721284
  56.4090659  36.6348421  54.0660542  56.2705018  37.3329467  54.5709284
  55.6290657  36.4797078  53.7096724  56.2733886  36.7148588  54.0886816
  54.7468744  32.9344797  60.3182924  54.7416783  32.0624613  60.3225350
  55.4529738  33.1332966  59.8452379  54.8513748  32.8348671  60.2489959
  48.4739637  32.6621781  59.6896744  48.6183013  33.2422989  59.0539854
  48.8215286  33.0398077  60.3946599  48.5467099  32.8042485  59.6995739
  50.6459555  31.8611949  57.4721876  49.8982869  32.0542963  57.0670154
  50.8001080  31.0357168  57.2345997  50.5581982  31.7677060  57.3767281
  50.8861332  25.7562500  58.3617279  51.3433946  26.4886474  58.4890071
  50.9617661  25.3328965  59.1204535  50.9652302  25.8019738  58.4918356
  43.1294323  26.0028319  59.4506723  42.5936513  25.3908678  59.7667490
  43.1912088  26.5776455  60.1040390  43.0589956  25.9975247  59.5942150
  55.3588658  18.9352375  52.2311122  55.4772226  19.3928838  51.4978425
  55.1850833  18.1297636  51.9447340  55.3507829  18.8846147  52.0812056
  48.7643710  27.7464604  55.2059103  47.9739785  27.5656064  55.5276439
  49.1604333  26.9691556  55.1889398  48.7060586  27.6052065  55.2511652
  51.2781540  30.2224863  59.6882602  51.2140681  31.0834819  59.5602739
  51.4178728  29.9056856  58.8878154  51.2897010  30.3025029  59.5510815
  55.6579331  36.9969584  65.2447053  56.4714196  36.7254733  65.4052186
  55.4974297  36.6977124  64.4407249  55.7549279  36.9124510  65.1492459
  52.9351493  27.6803242  58.1842441  53.1493462  27.0414156  57.6305795
  52.3185392  28.1249065  57.7550303  52.8756822  27.6513385  58.0392872
  55.0990581  29.2892307  59.1225748  54.2867263  28.9818197  59.2038921
  55.5580515  28.8091307  59.6868461  55.0470966  29.1728799  59.2180343
  52.3266222  20.7903177  53.1729784  51.4559779  20.7641898  53.1263094
  52.5806563  20.6180369  52.3555630  52.2359782  20.7613321  53.0449921
  52.1944088  30.6952378  63.9054451  52.6643720  31.3194495  64.2922325
  52.2405969  30.0269354  64.4647665  52.2711964  30.6887058  64.0454522
  49.3515362  22.8009406  54.6303254  48.8353851  22.1089597  54.7554833
  48.7909291  23.4680183  54.5765853  49.1921875  22.7972663  54.6409320
  51.4207596  23.3402366  56.4596107  51.0339349  23.3651397  57.2409637
  50.9340533  22.7744044  56.0070624  51.2920104  23.2598117  56.5084011
  55.6700575  38.0575875  60.5169894  56.3080295  37.5636070  60.1832350
  55.0274666  37.9853275  59.9322120  55.6694801  37.9734883  60.3812249
  57.3957575  29.9065021  55.0835809  56.9685183  29.8191369  54.3283909
  56.7583628  30.0142796  55.6690653  57.2387182  29.9097680  55.0581251
  51.0864737  20.2269351  58.7506367  51.7157855  20.7629651  58.4727437
  51.2550600  20.1346710  59.6019933  51.2042532  20.2930713  58.8354895
  50.8878652  25.0140546  61.0232779  51.7152081  24.7425695  61.0791393
  50.9086498  25.8101388  61.3796597  51.0131502  25.0920300  61.0847961
  55.7254832  38.7495683  57.1575250  56.5147210  38.3984748  57.2777332
  55.8998429  39.5632071  56.8951884  55.8675113  38.8181540  57.1363118
  54.5788656  22.7605240  51.7191669  54.7838249  22.6927548  52.5648666
  54.2515080  23.5664061  51.6512846  54.5603904  22.8691180  51.8351324
  49.2764807  30.0885808  53.4600637  48.9727944  29.5341796  54.0611044
  48.5744228  30.2678018  52.9728671  49.1281017  30.0330590  53.4770342
  57.8322343  23.3137004  51.1994434  57.2196657  23.8007406  51.5848166
  57.9286518  22.6380495  51.7432085  57.7560241  23.2855313  51.3373292
  51.8341424  25.0699845  46.2991934  52.2885171  25.2410405  47.0239778
  52.3081470  24.4567956  45.8989709  51.9709745  25.0050730  46.3465695
  45.7517573  25.7150169  56.2962690  46.2119054  25.7889098  57.0337813
  45.7973679  26.5131423  55.9462511  45.8268128  25.8444316  56.3535446
  47.4000922  26.3816864  60.8634717  47.0086487  25.7350211  61.2990495
  47.5686785  26.9728299  61.4828972  47.3671833  26.3731131  61.0197423
  61.4747371  34.3853941  56.6271950  61.5330495  34.8340589  57.3731927
  60.8413839  34.7952753  56.1902030  61.3898666  34.5127675  56.6724499
  55.1146466  40.0057483  53.0626697  54.9166155  40.4948297  52.3682908
  54.4934177  40.2098724  53.6410830  54.9934030  40.1074021  53.0449920
  51.0934020  23.5692638  52.4368802  50.2470065  23.7415446  52.3110152
  51.0905152  22.7641982  52.7734631  50.9681170  23.4753667  52.4679929
  52.1632320  27.3467853  53.3030860  51.6892275  26.8209615  53.8136171
  52.5350456  26.7997326  52.7345722  52.1482209  27.1883849  53.2946007
  42.5405350  29.3439359  58.6714406  43.4030963  29.2435069  58.5851736
  42.2097133  28.7634069  58.1099978  42.6190547  29.2430986  58.5759812
  58.4269051  32.4070228  54.7137641  58.1867274  31.5676644  54.7180067
  58.9061058  32.4870395  55.4378414  58.4621234  32.2951628  54.8212443
  54.0915820  28.2404407  46.3656614  53.5638839  28.3233151  45.6762323
  54.5511528  28.9822279  46.3621259  54.0817670  28.3625070  46.2631309
  60.4274238  29.1871686  52.6666900  60.1884008  29.1467520  51.8287684
  60.5908139  30.0342838  52.7932621  60.4164541  29.3063771  52.5620382
  57.0320268  33.5721635  58.5971945  57.7554467  33.1194161  58.4182965
  56.7670230  33.8526301  57.8144273  57.1001541  33.5472603  58.4550660
  45.9007136  28.1681808  55.3324824  45.2760207  28.1800200  54.7250777
  45.5652731  28.6441984  55.9816064  45.7592628  28.2400325  55.3381393
  52.8139057  33.6705513  56.7466960  52.1996051  33.1263563  57.0415595
  53.3306342  33.1569750  56.2672776  52.7994720  33.5141922  56.7191188
  45.1697882  29.7774956  57.5499693  45.3291368  29.0218280  57.9551415
  44.9890775  30.3265896  58.2040430  45.1663241  29.7468770  57.7062399
  53.1118185  21.9436192  58.1050482  52.6158746  22.1399866  57.4142049
  53.8687247  22.3428860  57.9339284  53.1505009  22.0313926  57.9770619
  50.3821064  25.6178538  54.6953793  50.4063552  25.0838650  54.0066573
  50.6332538  25.1095847  55.3579383  50.4230983  25.4639442  54.6918437
  46.6622387  24.3449356  54.0759537  46.7020758  24.8458563  54.7894244
  45.8372051  24.4359750  53.8065460  46.5461912  24.4331172  54.1410075
  48.8451999  33.9110096  62.1779832  47.9947630  34.0481810  62.3137476
  49.0080127  33.1773874  62.6227533  48.7435863  33.8224197  62.2635431
  48.0836750  30.8609866  56.3733436  47.2528680  31.0283684  56.1668684
  48.0288267  30.4845817  57.1582321  47.9526165  30.8299597  56.4581964
  45.8920533  24.3518759  62.0089847  46.5173237  23.8080891  62.2819279
  45.4371013  23.8713676  61.4397637  45.9168794  24.2008240  61.9651440
  59.4655582  32.5348046  57.1002495  60.0573422  33.1745296  57.1320693
  59.9014576  31.8371082  57.3894561  59.6174013  32.5266396  57.1483327
  51.2948972  36.9565418  57.7260389  50.7874063  37.5101265  58.1701019
  50.9975618  37.0173708  56.9079163  51.1753857  37.0471729  57.6708845
  53.4611154  25.3218738  56.5685052  53.8866226  24.8691264  55.9568578
  52.8468147  24.7678808  56.8449839  53.4339799  25.1732714  56.5190077
  51.9005377  21.7933838  49.9775629  51.2573695  21.6431484  50.5460767
  51.5604784  21.5476183  49.2124733  51.7550454  21.7345960  49.9478644
  56.4904723  29.7493264  49.4005637  55.8195913  30.2922967  49.2718703
  57.1844474  30.2188120  49.1587332  56.4933591  29.8991536  49.3461165
  56.6532851  26.2049148  52.3096010  57.0060461  25.7778871  52.9841809
  55.7947652  26.1199992  52.4397087  56.5782295  26.1293889  52.4291021
  54.6516117  29.4684517  56.2580853  54.6314044  29.2867812  57.1115632
  54.6995317  30.3396535  56.2340436  54.6550758  29.5701055  56.3804147
  52.5962446  36.0571709  62.1829329  52.5558301  35.4121386  61.5974485
  53.4085765  36.0008326  62.4954741  52.7105600  35.9530675  62.1426278
  51.1263110  27.8754668  45.7052236  50.5327949  28.1971664  45.1536803
  51.1638388  27.0295763  45.4973343  51.0437499  27.7978996  45.5935008
  58.0856911  21.3267560  53.2380323  57.5787776  20.6196699  53.1701500
  58.8824345  20.9960749  53.3681399  58.1284150  21.1740711  53.2479318
  54.0020927  27.8334172  49.1353987  53.7734620  27.8566874  48.2932345
  54.2619003  27.0091639  49.2548997  54.0067115  27.7150252  49.0279184
  48.2840155  29.6868645  58.7379087  47.7719058  29.0789828  59.0964118
  48.1119651  30.4025238  59.2053063  48.1829792  29.7031944  58.8595310
  43.1305870  28.1306220  61.3881449  42.9608460  28.7907595  60.8429655
  42.6871820  28.3412782  62.1093938  43.0405203  28.2592203  61.4143078
  47.0565689  26.3710718  50.4308182  47.5323056  26.7327798  49.7958363
  46.5554289  27.0267186  50.7108325  47.0531048  26.5204907  50.3784923
  60.2877051  35.8432486  46.2221187  60.6710657  36.5923843  46.4519284
  59.4921164  36.0898306  45.9633176  60.2270833  35.9902180  46.2178761
  52.1609226  27.6092890  61.1781342  52.7180656  27.3806699  60.5459808
  51.8370291  28.3698555  60.9016555  52.1955636  27.6876726  61.0437839
  40.0307934  31.0353086  56.6469938  39.4834654  30.3653732  56.7650807
  40.8200313  30.6682934  56.7113406  40.0660118  30.8818072  56.6738639
  49.8792343  30.6960543  62.1433350  50.6303670  31.0112220  62.4572904
  50.0714919  30.4939714  61.3167271  50.0183757  30.7127925  62.0676745
  56.7277633  26.8234109  49.3857145  56.7271859  26.6682766  50.2441421
  56.5233813  27.6697096  49.3298531  56.6977411  26.9254730  49.5045084
  38.7894904  30.2473894  53.8015962  38.6116665  29.7950503  54.5270877
  38.5013926  31.0500055  53.9854439  38.7207857  30.2996452  53.9359464
  54.4518485  31.5031611  53.0393352  54.9472150  30.7854606  52.9997372
  53.6418261  31.2002409  52.9247839  54.4062378  31.3529257  53.0167078
  56.5170304  34.2535299  55.7270481  56.9425375  33.7309720  55.1740906
  56.1527224  34.8516136  55.2059104  56.5256906  34.2645526  55.5679490
  55.1925888  39.5770876  64.2363710  55.3022853  38.7879437  64.5920457
  55.5216784  39.4876812  63.4338048  55.2578294  39.4476729  64.1706101
  50.0218398  22.7397034  59.0129733  50.1546304  21.9428027  59.3410708
  50.4063551  23.2663436  59.5928008  50.0974727  22.6996950  59.1473236
  53.7422850  37.7587497  58.8199331  53.1943796  37.1345381  58.5519396
  54.2035878  37.9481769  58.1043410  53.7290059  37.6946547  58.6749762
  53.0950753  19.6627360  55.6110826  52.2896717  19.5525089  55.9278664
  52.9657489  19.7639815  54.7540692  52.9570886  19.6611030  55.5318866
  56.5516714  25.8272852  56.2050523  55.9679703  26.3282058  55.7928090
  56.8721008  25.3202408  55.5714846  56.5129889  25.8264687  56.0509030
  47.6806845  22.7356209  57.2607627  48.2251258  22.3947335  57.8511968
  47.7343781  23.5941670  57.4028911  47.7695964  22.8111468  57.3689500
  53.3081176  38.7638570  55.3508672  54.1279550  38.6201536  55.6124967
  53.0275254  39.3884769  55.8925110  53.3877919  38.8348922  55.4696611
  69.7794826  46.4203421  48.3151548  69.7488831  47.2748058  48.4869818
  70.3776175  46.1198714  48.8737692  69.8631984  46.5019918  48.4226351
  62.9794511  45.5079072  53.0704479  62.1232407  45.6687571  53.1213595
  63.0262165  44.6371136  53.0909540  62.8593623  45.4029874  53.0810545
  57.3635651  55.0441790  48.8341710  56.6118550  54.6657329  48.6057755
  57.8121663  55.0760224  48.0860521  57.3185318  54.9927397  48.6899212
  66.2888228  51.7765598  62.6764935  66.9954995  51.2817629  62.8051869
  66.4776163  52.2174680  61.9467593  66.4216133  51.7683948  62.5873980
  62.3564902  57.4181429  50.2038369  62.7404281  57.9868327  49.6643144
  62.2924043  56.6930939  49.7244185  62.4038329  57.3956892  50.0532231
  65.8246332  47.5671116  55.7136130  66.3702292  48.2456203  55.7730100
  65.7663208  47.4258577  54.8537712  65.8962246  47.6463118  55.5948191
  58.9420407  55.0560182  51.1004483  59.0430770  54.2460536  51.4101610
  58.3462152  54.9617129  50.4704161  58.8692946  54.9225211  51.0530721
  67.6011401  48.9955723  46.5869858  67.4850927  49.7463410  47.0161996
  68.3967287  48.7379677  46.8365945  67.7015990  49.0690570  46.6873950
  58.7821147  59.9737772  52.5019339  59.4258602  60.4150936  52.8915497
  59.1077402  59.1691198  52.4149598  58.9252975  59.9202966  52.5464816
  59.4841726  52.9849747  47.8739200  59.8057567  53.5254954  47.2700509
  60.1313823  52.4146518  48.0061490  59.6267782  52.9808922  47.8046236
  61.7231370  51.3736186  47.9453379  62.1625005  50.7653287  48.3908151
  61.5736033  50.9943560  47.1738844  61.7652835  51.2274658  47.8972546
  59.1903013  49.9680198  55.1472204  59.8352015  49.4752641  54.8283153
  59.4304790  50.1104985  55.9738282  59.3213598  49.9157641  55.2221737
  61.7289104  52.8135104  54.7979097  62.0112347  52.0186510  54.5765853
  62.4575265  53.2915692  54.8184158  61.8778668  52.7669701  54.7682112
  59.7070298  40.3558138  52.0394862  59.3773628  40.8069282  51.3698561
  59.0315300  40.2774301  52.5867868  59.5580734  40.4109273  52.0218085
  65.3240706  49.7263368  44.8984148  65.2392001  50.5824334  45.0433717
  65.8125090  49.4507692  45.5666307  65.3829604  49.8120689  45.0186229
  66.9146706  36.3443661  50.2844472  66.6000147  37.0347140  50.7164895
  66.3973647  36.2888443  49.5829973  66.7911176  36.4378550  50.2441422
  66.2559140  46.3448162  46.3981883  65.7270611  46.5607795  47.0579189
  66.7784159  47.0384300  46.3182852  66.2547593  46.4791299  46.4837482
  71.7107192  51.9194466  51.7714927  70.8804896  52.1305110  51.9348344
  71.6616445  51.0931521  51.4957211  71.5813928  51.8284073  51.7552293
  53.7002776  55.9566140  52.0013023  53.2170354  56.6816629  51.9772606
  54.5126094  56.2542270  52.1123180  53.7493524  56.1068494  52.0140302
  59.7716930  54.7498321  54.6062837  59.2543872  54.3905736  54.0024145
  60.4691321  54.2260495  54.6168903  59.7982511  54.6196009  54.5193096
  63.4280522  55.1993135  60.5679010  63.5163868  55.0119275  61.4157220
  63.8570235  54.5530564  60.1683857  63.5042624  55.0756142  60.6350762
  60.9950982  54.4824295  59.5496672  60.4321817  54.0696904  60.0736333
  61.7572005  54.4077200  59.9689816  61.0245430  54.4101695  59.6889673
  56.5546973  56.4722316  52.1533302  57.2567553  55.9574305  52.2106059
  56.4744456  56.7996467  52.9580178  56.6470734  56.4436542  52.2806095
  71.2061151  44.5664867  55.5665349  70.3689572  44.6367054  55.8012943
  71.1749382  44.5689362  54.6939651  71.0779433  44.5775094  55.4724897
  57.6025880  46.7097903  61.2813718  57.7746384  46.6003797  62.1298999
  58.1395237  47.3552308  61.0444910  57.7070884  46.7889904  61.3718814
  56.5050452  53.0829543  55.9632216  57.0448677  52.9400674  56.6335588
  55.8220398  53.4826294  56.3316242  56.4842606  53.1209214  56.1166638
  61.9483036  37.8267156  47.2544946  62.6769196  37.6483111  46.8083103
  62.0377929  38.6685236  47.4652124  62.0689698  37.9251035  47.2198464
  65.9291337  48.7620544  51.1577240  66.6848852  49.1952058  51.1966149
  66.0353661  48.1125313  51.7311876  66.0561507  48.7298027  51.2475266
  68.9671508  52.5893821  51.9079643  68.5306740  52.5930563  52.6638615
  68.6334423  53.2699320  51.4759221  68.8534128  52.6906277  51.9560476
  63.5400581  54.6302154  63.2322794  64.3240998  54.7433001  63.5978536
  63.3397176  53.8043291  63.4281479  63.6266607  54.5248873  63.3157180
  68.8868991  39.6307649  54.1509071  69.5294899  39.7005753  54.7370987
  69.1392011  38.9636872  53.6488613  69.0191123  39.5433997  54.1636350
  63.6970975  56.5412256  56.8789249  62.8986220  56.3011756  57.1363118
  64.1456986  56.5926649  57.6256297  63.6445586  56.5134647  57.0274173
  72.1015854  49.3074741  50.7999281  72.7632288  48.7465409  50.6995189
  71.4607266  48.8126771  51.1251972  72.1044721  49.1511150  50.8331621
  62.9892662  52.6044872  43.1080204  63.4043810  52.2729896  42.4164700
  62.1584591  52.3713774  42.9800340  62.9280670  52.5216128  42.9871051
  68.3880685  50.3240123  50.5411269  68.6236274  50.4685322  49.7138120
  68.5370248  51.0882531  50.9342783  68.4446488  50.4579178  50.4774873
  70.2171141  49.1641789  48.3780873  70.5479358  49.6969429  47.7720968
  70.7904229  49.2180677  49.0342824  70.3504820  49.2511358  48.3858655
  62.7571711  50.2872701  64.7709437  61.9644692  50.6016212  64.9562057
  62.8720639  50.5024169  63.9330222  62.6567122  50.3656537  64.6747772
  65.4303030  47.0106692  49.0604453  65.5249885  47.7495986  49.5144079
  64.8061874  46.5824167  49.4939018  65.3512061  47.0568012  49.1912601
  63.6855504  50.1892904  59.7094734  64.2594366  49.5520149  59.8643298
  63.6070308  50.1896987  58.8404392  63.7588739  50.0958016  59.6041145
  65.6826052  48.8555432  42.2941405  65.6006214  48.9257619  43.1596392
  66.3205772  49.4185175  42.1025146  65.7645889  48.9494403  42.3931355
  59.0419223  48.6216169  51.7615932  58.7838467  47.7887904  51.7347231
  59.0967706  48.8473782  50.9208432  59.0119001  48.5313941  51.6336068
  64.1220273  40.7244620  51.8620024  63.4176600  40.2353806  52.0203943
  64.1705247  40.7367095  50.9908469  64.0250325  40.6534268  51.7559364
  61.6827224  44.6477281  57.1073205  61.2941656  44.2231499  56.4525396
  61.0181922  44.8959431  57.6150231  61.5274151  44.6216002  57.0861073
  71.3250493  44.4052286  49.8821035  71.0687058  43.5932227  49.6918918
  72.1679807  44.4129853  49.6551222  71.4116518  44.2864283  49.8205852
  65.5053585  38.3451910  54.6197189  65.8864097  37.6630081  55.0065063
  64.7016870  38.0561512  54.4372853  65.4430047  38.2018959  54.6501245
  69.0075652  51.5601882  59.7179587  68.7714290  50.7289947  59.5991648
  69.6518881  51.5087489  60.3034432  69.0670323  51.4299570  59.7865481
  58.6574070  52.3497403  50.4322324  59.2948017  52.1109151  50.9774117
  59.0829142  52.5534562  49.6975484  58.8150236  52.3448413  50.4039481
  53.3486713  54.5885740  54.3156628  53.3890858  54.8600591  53.4876407
  53.9081237  55.1127648  54.7314415  53.4370059  54.7061495  54.2548516
  59.4645426  40.8506108  64.4859797  59.1498867  41.6205671  64.2229360
  59.1435358  40.2876364  63.9012024  59.3704345  40.8816377  64.3601147
  70.0312073  51.3446331  55.7807882  69.7257890  52.0774388  56.1421197
  69.3118288  50.9384260  55.5000668  69.8799415  51.3928064  55.7921019
  61.0395542  52.8269826  52.1116110  61.1134550  52.6644998  52.9657960
  61.8565049  53.0160015  51.8676592  61.1711901  52.8306568  52.2014136
  75.7313865  47.9839331  55.1076226  75.6638365  48.0035291  54.2378813
  75.7169527  48.8269659  55.3331897  75.7192621  48.1113066  55.0128703
  66.1410211  39.3874489  58.4317316  66.8863803  39.1984299  58.0180741
  65.7247516  39.9132727  57.8731172  66.1895186  39.4376634  58.2881889
  59.5800128  55.7904569  46.8429583  59.8698426  55.3993550  46.1188810
  60.3103609  55.9721274  47.2834859  59.7307012  55.7598383  46.8012390
  73.5172482  46.7583718  53.3822820  74.0680404  46.1251787  53.6219913
  73.5016598  47.2899110  54.0738325  73.5957679  46.7432666  53.5201679
  60.1694873  50.5922315  57.9282714  59.6706567  51.3038083  58.0067602
  60.9795097  50.9122981  57.8900876  60.2150980  50.7449163  57.9339282
  57.5206043  57.7671951  49.9089733  57.3006339  57.4769306  50.7016400
  57.3000566  57.1086906  49.3807646  57.4553638  57.6271660  49.9478642
  67.2200888  44.9980051  52.4927417  66.8765654  44.2770386  52.8434666
  67.3193931  44.7893902  51.6505775  67.1842931  44.8604255  52.4199097
  59.6873999  59.1401341  48.6920426  60.3398057  58.6077784  48.9211452
  58.9899608  58.7869994  49.0788300  59.6804717  59.0090864  48.7832593
  67.6813918  51.4605755  48.0351405  68.2471950  52.1198965  47.9509948
  67.0341821  51.8055453  48.5067807  67.6692674  51.6087697  48.0924161
  59.0961931  43.4503359  63.2245012  58.2861707  43.7561139  63.1134854
  59.5736618  44.1708942  63.3397596  59.0465410  43.6017960  63.2252083
  57.9553491  52.6649080  53.4727915  57.4334244  52.8049372  54.1579780
  58.3427511  51.9059745  53.6630033  57.9357192  52.5734604  53.6028992
  64.1520496  54.4044540  47.4588484  63.9107172  53.6712400  47.0515549
  64.3321829  54.9531397  46.8054817  64.1428120  54.3766931  47.3018707
  59.3819816  49.6953099  48.8709406  59.1862599  50.3027834  48.2769709
  59.6054162  49.0021043  48.3901080  59.3854457  49.6830625  48.7125487
  65.7391854  42.9171636  54.3686960  64.9002954  42.9432915  54.1325223
  65.8096221  43.5642371  54.9492306  65.6260247  43.0167762  54.4196076
  64.1861132  39.8157013  49.1014576  64.8887485  39.6164761  48.6234534
  63.9205321  39.0432955  49.4083419  64.2507764  39.6719979  49.0760017
  69.6149378  48.1239623  51.6548201  69.5283352  48.2795049  52.5082980
  69.1599858  48.7677698  51.2807606  69.5352634  48.2415378  51.7255308
  58.9489688  41.0792298  58.1545456  58.7572885  41.0947433  59.0044880
  59.7988284  41.2755973  58.1312111  59.0465410  41.1106649  58.2768751
  63.4875194  45.4450370  50.2773761  63.2409908  45.3646121  51.1110550
  63.8160317  44.6603838  50.0836288  63.4996437  45.3176635  50.3721284
  67.3823243  52.1533729  54.0660542  67.2437602  52.8514775  54.5709284
  66.6023240  51.9982386  53.7096724  67.2466469  52.2333896  54.0886816
  65.7201328  48.4530105  60.3182924  65.7149366  47.5809921  60.3225350
  66.4262322  48.6518274  59.8452379  65.8246332  48.3533979  60.2489959
  59.4472221  48.1807088  59.6896744  59.5915597  48.7608297  59.0539854
  59.7947870  48.5583385  60.3946599  59.5199682  48.3227793  59.6995739
  61.6192138  47.3797257  57.4721876  60.8715452  47.5728271  57.0670154
  61.7733664  46.5542476  57.2345997  61.5314566  47.2862368  57.3767281
  58.5199976  56.3709860  56.5557771  58.6689540  55.8112776  55.9031175
  59.2999978  56.4501862  56.9390290  58.6574070  56.2995426  56.5154720
  68.8776615  51.5111983  44.8277041  68.4983424  50.7249121  44.8206331
  68.2142861  52.0598840  44.6848686  68.7235090  51.4756807  44.8057838
  61.0453277  56.5424503  57.8342262  60.9696948  55.8733314  58.3893050
  60.9743136  57.2442291  58.3482928  61.0233884  56.5469411  57.9919110
  61.8593915  41.2747808  58.3617279  62.3166530  42.0071782  58.4890071
  61.9350244  40.8514273  59.1204535  61.9384885  41.3205046  58.4918356
  66.3321241  34.4537683  52.2311122  66.4504809  34.9114146  51.4978425
  66.1583417  33.6482944  51.9447340  66.3240412  34.4031455  52.0812056
  61.7023524  55.0625502  48.6665868  62.4673415  54.7935146  48.3448532
  61.6001614  54.5775512  49.3835930  61.8005019  54.9515067  48.7245695
  59.7376293  43.2649912  55.2059103  58.9472368  43.0841372  55.5276439
  60.1336916  42.4876864  55.1889398  59.6793170  43.1237372  55.2511652
  64.2242184  52.0937686  40.6465817  64.9915169  52.1537811  40.2371669
  63.7773493  51.5218127  40.1622135  64.2715611  52.0174262  40.5143527
  65.1219980  50.8992342  52.9318549  64.4464981  50.6677574  53.4331936
  65.1312356  50.2913525  52.3060654  65.0238484  50.7751267  52.9134701
  62.2514124  45.7410171  59.6882602  62.1873265  46.6020127  59.5602739
  62.3911311  45.4242164  58.8878154  62.2629594  45.8210337  59.5510815
  67.1236714  53.7557474  45.1628727  67.2056552  54.5624460  44.8390178
  67.6086456  53.7753433  45.8869501  67.2073872  53.8778136  45.2215626
  60.9333218  48.4342310  53.8298805  60.5095467  48.6346809  53.0937823
  60.7578073  47.5871158  53.9423105  60.8444098  48.3391091  53.7372495
  60.4344911  59.9492823  56.2920262  60.9240841  59.2503612  56.1095927
  59.8629143  59.6516693  56.8796320  60.4229441  59.8019047  56.3521303
  66.6311915  52.5154892  65.2447053  67.4446780  52.2440041  65.4052186
  66.4706881  52.2162432  64.4407249  66.7281863  52.4309818  65.1492459
  60.9281257  53.6969597  45.4160169  60.9974077  52.8384135  45.5553169
  61.7069712  53.9141477  45.0879193  61.0534107  53.6022460  45.3877326
  63.9084076  43.1988549  58.1842441  64.1226046  42.5599464  57.6305795
  63.2917976  43.6434373  57.7550303  63.8489406  43.1698693  58.0392872
  65.3188744  56.1207298  49.6296662  64.9268536  55.8174013  48.9119528
  65.4741817  56.9576388  49.4401616  65.2842334  56.1991135  49.4953159
  66.0723164  44.8077615  59.1225748  65.2599846  44.5003505  59.2038921
  66.5313099  44.3276615  59.6868461  66.0203549  44.6914107  59.2180343
  65.4828419  52.6857287  49.5702693  65.1243074  52.8571930  50.3466725
  64.9967130  53.1470492  49.0130691  65.3587116  52.7796258  49.6027962
  63.2998805  36.3088485  53.1729784  62.4292363  36.2827206  53.1263094
  63.5539146  36.1365677  52.3555630  63.2092365  36.2798629  53.0449921
  63.1676672  46.2137686  63.9054451  63.6376303  46.8379803  64.2922325
  63.2138552  45.5454662  64.4647665  63.2444548  46.2072366  64.0454522
  60.3247946  38.3194714  54.6303254  59.8086434  37.6274905  54.7554833
  59.7641875  38.9865491  54.5765853  60.1654459  38.3157971  54.6409320
  62.3940179  38.8587674  56.4596107  62.0071932  38.8836705  57.2409637
  61.9073116  38.2929352  56.0070624  62.2652688  38.7783424  56.5084011
  66.6433159  53.5761183  60.5169894  67.2812879  53.0821378  60.1832350
  66.0007250  53.5038583  59.9322120  66.6427385  53.4920191  60.3812249
  68.3690159  45.4250329  55.0835809  67.9417767  45.3376677  54.3283909
  67.7316212  45.5328104  55.6690653  68.2119766  45.4282988  55.0581251
  62.0597321  35.7454659  58.7506367  62.6890439  36.2814959  58.4727437
  62.2283184  35.6532018  59.6019933  62.1775115  35.8116021  58.8354895
  61.8611236  40.5325854  61.0232779  62.6884665  40.2611003  61.0791393
  61.8819082  41.3286696  61.3796597  61.9864086  40.6105608  61.0847961
  66.6987415  54.2680991  57.1575250  67.4879793  53.9170056  57.2777332
  66.8731013  55.0817379  56.8951884  66.8407697  54.3366848  57.1363118
  56.4380726  47.6789717  54.2103039  55.5968732  47.5793591  54.4181933
  56.6470733  48.4485197  54.5617360  56.3445418  47.7781760  54.2930354
  65.5521239  38.2790548  51.7191669  65.7570833  38.2112855  52.5648666
  65.2247663  39.0849369  51.6512846  65.5336487  38.3876488  51.8351324
  60.2497390  45.6071116  53.4600637  59.9460528  45.0527104  54.0611044
  59.5476811  45.7863326  52.9728671  60.1013600  45.5515898  53.4770342
  58.3115741  52.8220837  58.1672735  58.2036096  52.8322899  59.0334793
  58.5211523  53.6475617  57.9777688  58.3265852  52.9461911  58.2676826
  68.8054927  38.8322312  51.1994434  68.1929241  39.3192714  51.5848166
  68.9019102  38.1565803  51.7432085  68.7292825  38.8040621  51.3373292
  56.3289533  50.0733479  55.6294672  55.7377467  50.7142977  55.5997687
  57.0910557  50.4971096  55.6025972  56.3537794  50.2309317  55.6209819
  56.7250156  41.2335477  56.2962690  57.1851638  41.3074406  57.0337813
  56.7706263  42.0316731  55.9462511  56.8000712  41.3629624  56.3535446
  58.3733506  41.9002172  60.8634717  57.9819071  41.2535519  61.2990495
  58.5419369  42.4913607  61.4828972  58.3404416  41.8916439  61.0197423
  72.4479955  49.9039249  56.6271950  72.5063079  50.3525897  57.3731927
  71.8146423  50.3138061  56.1902030  72.3631250  50.0312983  56.6724499
  66.0879050  55.5242791  53.0626697  65.8898738  56.0133605  52.3682908
  65.4666761  55.7284032  53.6410830  65.9666614  55.6259329  53.0449920
  62.0666603  39.0877946  52.4368802  61.2202649  39.2600754  52.3110152
  62.0637736  38.2827290  52.7734631  61.9413753  38.9938975  52.4679929
  63.1364904  42.8653161  53.3030860  62.6624858  42.3394923  53.8136171
  63.5083040  42.3182633  52.7345722  63.1214793  42.7069157  53.2946007
  69.4001634  47.9255536  54.7137641  69.1599857  47.0861951  54.7180067
  69.8793642  48.0055703  55.4378414  69.4353818  47.8136936  54.8212443
  65.0648403  43.7589715  46.3656614  64.5371422  43.8418459  45.6762323
  65.5244112  44.5007587  46.3621259  65.0550254  43.8810378  46.2631309
  71.4006821  44.7056994  52.6666900  71.1616591  44.6652828  51.8287684
  71.5640723  45.5528146  52.7932621  71.3897125  44.8249079  52.5620382
  68.0052852  49.0906943  58.5971945  68.7287050  48.6379469  58.4182965
  67.7402814  49.3711609  57.8144273  68.0734125  49.0657911  58.4550660
  64.6185486  52.3293279  45.4966271  65.3419685  52.7951392  45.3530844
  64.1786077  52.3966888  44.7463868  64.6601178  52.4077116  45.3651052
  63.7871641  49.1890821  56.7466960  63.1728634  48.6448871  57.0415595
  64.3038926  48.6755058  56.2672776  63.7727303  49.0327230  56.7191188
  63.0267938  50.2595091  54.4811259  62.5995546  49.6344810  54.0476694
  63.0192883  49.9770013  55.3070266  62.9627079  50.1247872  54.5391086
  64.0850768  37.4621500  58.1050482  63.5891330  37.6585174  57.4142049
  64.8419830  37.8614168  57.9339284  64.1237593  37.5499234  57.9770619
  61.3553648  41.1363846  54.6953793  61.3796135  40.6023958  54.0066573
  61.6065122  40.6281154  55.3579383  61.3963567  40.9824750  54.6918437
  57.6354970  39.8634664  54.0759537  57.6753342  40.3643870  54.7894244
  56.8104635  39.9545058  53.8065460  57.5194496  39.9516480  54.1410075
  59.8184583  49.4295404  62.1779832  58.9680214  49.5667118  62.3137476
  59.9812711  48.6959182  62.6227533  59.7168447  49.3409505  62.2635431
  59.0569334  46.3795174  56.3733436  58.2261263  46.5468992  56.1668684
  59.0020851  46.0031124  57.1582321  58.9258748  46.3484905  56.4581964
  56.8653117  39.8704067  62.0089847  57.4905820  39.3266199  62.2819279
  56.4103597  39.3898984  61.4397637  56.8901377  39.7193548  61.9651440
  70.4388166  48.0533354  57.1002495  71.0306006  48.6930604  57.1320693
  70.8747160  47.3556390  57.3894561  70.5906597  48.0451704  57.1483327
  62.2681555  52.4750726  57.7260389  61.7606646  53.0286573  58.1701019
  61.9708202  52.5359016  56.9079163  62.1486440  52.5657037  57.6708845
  64.4343738  40.8404046  56.5685052  64.8598809  40.3876572  55.9568578
  63.8200731  40.2864116  56.8449839  64.4072383  40.6918022  56.5190077
  64.8789336  56.3913984  45.6564332  64.1618645  56.2174846  45.1911569
  65.5296073  56.1566556  45.1239818  64.8691186  56.3309776  45.5093550
  62.8737960  37.3119145  49.9775629  62.2306278  37.1616792  50.5460767
  62.5337367  37.0661491  49.2124733  62.7283038  37.2531268  49.9478644
  67.4637307  45.2678572  49.4005637  66.7928497  45.8108275  49.2718703
  68.1577057  45.7373428  49.1587332  67.4666174  45.4176843  49.3461165
  61.5124041  57.4075284  54.6317395  61.2889695  56.6494114  55.0001422
  61.0233884  57.4373305  53.9097835  61.4067490  57.2997509  54.5794136
  67.6265434  41.7234456  52.3096010  67.9793044  41.2964179  52.9841809
  66.7680236  41.6385299  52.4397087  67.5514879  41.6479197  52.4291021
  65.6248700  44.9869824  56.2580853  65.6046627  44.8053120  57.1115632
  65.6727901  45.8581843  56.2340436  65.6283341  45.0886363  56.3804147
  63.5695030  51.5757016  62.1829329  63.5290885  50.9306693  61.5974485
  64.3818348  51.5193634  62.4954741  63.6838184  51.4715983  62.1426278
  60.1602498  57.6275742  52.0854480  59.7462896  56.9649873  51.6958322
  60.8449872  57.7753601  51.5650174  60.2000869  57.5516401  51.9510977
  63.5267792  56.7865828  52.8378097  63.1284075  56.8968098  52.0698917
  62.9119011  56.9947894  53.4204656  63.3766681  56.8339396  52.8109396
  69.0589494  36.8452868  53.2380323  68.5520359  36.1382007  53.1701500
  69.8556928  36.5146057  53.3681399  69.1016734  36.6926019  53.2479318
  64.9753510  43.3519480  49.1353987  64.7467203  43.3752181  48.2932345
  65.2351587  42.5276947  49.2548997  64.9799698  43.2335560  49.0279184
  59.2572739  45.2053953  58.7379087  58.7451642  44.5975136  59.0964118
  59.0852235  45.9210546  59.2053063  59.1562376  45.2217252  58.8595310
  54.1038453  43.6491528  61.3881449  53.9341044  44.3092903  60.8429655
  53.6604403  43.8598090  62.1093938  54.0137787  43.7777510  61.4143078
  71.2609634  51.3617794  46.2221187  71.6443240  52.1109151  46.4519284
  70.4653748  51.6083614  45.9633176  71.2003417  51.5087488  46.2178761
  63.1341809  43.1278198  61.1781342  63.6913239  42.8992007  60.5459808
  62.8102874  43.8883863  60.9016555  63.1688219  43.2062034  61.0437839
  60.8524926  46.2145851  62.1433350  61.6036253  46.5297528  62.4572904
  61.0447503  46.0125022  61.3167271  60.9916341  46.2313233  62.0676745
  67.7010216  42.3419417  49.3857145  67.7004443  42.1868074  50.2441421
  67.4966397  43.1882404  49.3298531  67.6709994  42.4440038  49.5045084
  65.4251069  47.0216919  53.0393352  65.9204734  46.3039914  52.9997372
  64.6150844  46.7187717  52.9247839  65.3794962  46.8714565  53.0167078
  67.4902887  49.7720607  55.7270481  67.9157959  49.2495028  55.1740906
  67.1259807  50.3701444  55.2059104  67.4989490  49.7830834  55.5679490
  57.1256967  58.0684824  54.4867826  57.4403526  58.8821213  54.4945608
  57.5350381  57.6835043  55.1549985  57.2325065  58.1313526  54.5871918
  64.0781487  53.4854871  52.0571638  64.5492665  54.1995133  52.2261623
  64.4141665  52.8853621  52.5931508  64.1976602  53.5026335  52.1604014
  66.1658471  55.0956184  64.2363710  66.2755437  54.3064745  64.5920457
  66.4949368  55.0062120  63.4338048  66.2310877  54.9662037  64.1706101
  60.9950982  38.2582341  59.0129733  61.1278887  37.4613335  59.3410708
  61.3796135  38.7848744  59.5928008  61.0707311  38.2182258  59.1473236
  64.7155433  53.2772805  58.8199331  64.1676379  52.6530689  58.5519396
  65.1768462  53.4667077  58.1043410  64.7022643  53.2131855  58.6749762
  64.0683337  35.1812668  55.6110826  63.2629301  35.0710397  55.9278664
  63.9390072  35.2825123  54.7540692  63.9303470  35.1796338  55.5318866
  67.5249298  41.3458159  56.2050523  66.9412286  41.8467366  55.7928090
  67.8453592  40.8387716  55.5714846  67.4862473  41.3449994  56.0509030
  58.6539429  38.2541516  57.2607627  59.1983842  37.9132643  57.8511968
  58.7076364  39.1126978  57.4028911  58.7428548  38.3296776  57.3689500
  54.4669987  52.0157933  54.1346434  55.0714845  51.9753767  53.5060255
  54.2597300  52.8629085  54.1650490  54.5258885  52.1345935  54.0462551
  64.2813759  54.2823878  55.3508672  65.1012133  54.1386844  55.6124967
  64.0007837  54.9070077  55.8925110  64.3610503  54.3534230  55.4696611
  73.9527095  61.0264380  53.0704479  73.0964990  61.1872879  53.1213595
  73.9994748  60.1556444  53.0909540  73.8326206  60.9215182  53.0810545
  68.3368234  70.5627098  48.8341710  67.5851134  70.1842637  48.6057755
  68.7854246  70.5945532  48.0860521  68.2917901  70.5112705  48.6899212
  76.7978916  63.0856424  55.7136130  77.3434876  63.7641511  55.7730100
  76.7395792  62.9443885  54.8537712  76.8694830  63.1648426  55.5948191
  69.9152991  70.5745490  51.1004483  70.0163354  69.7645844  51.4101610
  69.3194736  70.4802437  50.4704161  69.8425529  70.4410519  51.0530721
  63.1118035  66.5965777  50.7256816  62.8768219  65.7633429  50.6189085
  63.2503676  66.8770443  49.9118017  63.0973697  66.5149280  50.5899171
  65.4108122  58.7651508  53.6241124  64.7913154  58.1744155  53.4551139
  65.3091986  59.3562943  52.9905447  65.3045798  58.7655590  53.5046114
  70.4574310  68.5035054  47.8739200  70.7790151  69.0440262  47.2700509
  71.1046406  67.9331826  48.0061490  70.6000365  68.4994230  47.8046236
  72.5076018  60.5051049  47.9573587  73.2056183  60.6839177  48.4495050
  72.8228350  59.9821389  47.3343977  72.6571355  60.4544821  47.9375597
  65.1377255  62.3103789  55.8684693  65.0135952  62.8966235  56.5034512
  65.7895540  61.8163985  56.1696968  65.2150905  62.3242594  56.0070622
  72.6963953  66.8921494  47.9453379  73.1357589  66.2838595  48.3908151
  72.5468616  66.5128868  47.1738844  72.7385419  66.7459966  47.8972546
  70.1635596  65.4865506  55.1472204  70.8084599  64.9937949  54.8283153
  70.4037373  65.6290293  55.9738282  70.2946181  65.4342948  55.2221737
  72.7021688  68.3320412  54.7979097  72.9844931  67.5371818  54.5765853
  73.4307848  68.8101000  54.8184158  72.8511251  68.2855009  54.7682112
  70.6802882  55.8743446  52.0394862  70.3506212  56.3254590  51.3698561
  70.0047883  55.7959609  52.5867868  70.5313318  55.9294581  52.0218085
  76.2973290  65.2448676  44.8984148  76.2124585  66.1009642  45.0433717
  76.7857673  64.9693000  45.5666307  76.3562187  65.3305997  45.0186229
  77.8879289  51.8628969  50.2844472  77.5732730  52.5532448  50.7164895
  77.3706231  51.8073751  49.5829973  77.7643760  51.9563858  50.2441422
  77.2291723  61.8633470  46.3981883  76.7003195  62.0793103  47.0579189
  77.7516743  62.5569608  46.3182852  77.2280176  61.9976607  46.4837482
  69.1191331  65.7596687  45.1989351  68.5348546  66.2646718  45.6055215
  68.7161426  65.5339074  44.4585943  68.9730635  65.8004935  45.1494376
  64.6735360  71.4751448  52.0013023  64.1902938  72.2001937  51.9772606
  65.4858678  71.7727578  52.1123180  64.7226107  71.6253801  52.0140302
  73.5768545  62.0062339  43.6758272  73.8164549  62.2140322  42.8633615
  73.8984386  61.2019847  43.7847216  73.6605703  61.9176440  43.5718825
  68.8858836  53.9355734  47.5217810  69.6404804  54.3034052  47.2834860
  68.7086370  54.3095289  48.2896989  68.9713314  54.0453922  47.6002698
  67.5279557  71.9907624  52.1533302  68.2300136  71.4759613  52.2106059
  67.4477040  72.3181775  52.9580178  67.6203317  71.9621850  52.2806095
  68.5758463  62.2283211  61.2813718  68.7478967  62.1189105  62.1298999
  69.1127821  62.8737616  61.0444910  68.6803467  62.3075212  61.3718814
  67.2415900  56.3426053  44.2195923  67.0591473  56.5597934  43.3936915
  68.1041513  56.4565066  44.2754537  67.3420490  56.3915951  44.1050410
  66.8530332  68.1813976  51.6618910  67.6919232  68.4136908  51.7092672
  66.8842101  67.3118287  51.5925946  66.9812050  68.0870922  51.6583555
  67.4783035  68.6014851  55.9632216  68.0181260  68.4585982  56.6335588
  66.7952982  69.0011602  56.3316242  67.4575189  68.6394522  56.1166638
  72.9215619  53.3452464  47.2544946  73.6501780  53.1668419  46.8083103
  73.0110512  54.1870544  47.4652124  73.0422282  53.4436343  47.2198464
  76.9023920  64.2805851  51.1577240  77.6581435  64.7137366  51.1966149
  77.0086245  63.6310621  51.7311876  77.0294091  64.2483335  51.2475266
  62.8820180  64.8215142  56.1166637  62.6158596  64.0054258  56.2757628
  62.8958744  64.8668297  55.2462153  62.8444903  64.7072046  56.0120119
  66.7877927  59.6200226  42.7318396  66.0736104  59.3338406  43.1440828
  67.2721896  59.9596852  43.3724783  66.7537291  59.6281876  42.8874031
  67.6318787  58.3593520  58.7633645  66.9390583  57.8890500  59.0094377
  68.2479114  58.1331824  59.3375352  67.6203317  58.2560652  58.8842798
  73.9625245  68.1230180  43.1080204  74.3776394  67.7915204  42.4164700
  73.1317175  67.8899082  42.9800340  73.9013254  68.0401436  42.9871051
  63.2913594  65.6073921  53.3978382  63.1089167  65.5820807  52.5450674
  64.0263263  66.0772859  53.4367291  63.3727658  65.6735283  53.2776300
  66.3559346  62.3258924  59.9060490  67.0799318  62.3111955  60.3925385
  66.4575482  63.0354279  59.4082459  66.4777555  62.4283627  59.9039277
  76.4035614  62.5292000  49.0604453  76.4982468  63.2681294  49.5144079
  75.7794458  62.1009475  49.4939018  76.3244644  62.5753320  49.1912601
  63.2584504  62.4867422  53.5477448  63.8358007  62.3503873  54.1869694
  62.5598566  62.0303206  53.8023033  63.2405526  62.3989688  53.6799738
  76.6558635  64.3740739  42.2941405  76.5738798  64.4442927  43.1596392
  77.2938356  64.9370483  42.1025146  76.7378473  64.4679711  42.3931355
  70.0151806  64.1401477  51.7615932  69.7571051  63.3073212  51.7347231
  70.0700289  64.3659090  50.9208432  69.9851584  64.0499249  51.6336068
  75.0952857  56.2429928  51.8620024  74.3909183  55.7539114  52.0203943
  75.1437831  56.2552403  50.9908469  74.9982908  56.1719576  51.7559364
  68.9886519  61.6939240  52.2480826  68.4136110  61.8531408  52.8844787
  68.6122195  61.0574649  51.7849277  68.8489331  61.6237053  52.2735385
  72.6559807  60.1662589  57.1073205  72.2674240  59.7416807  56.4525396
  71.9914506  60.4144739  57.6150231  72.5006735  60.1401310  57.0861073
  58.7343338  61.3379315  50.2625267  58.8203589  60.9611183  51.0438797
  59.3619135  60.9639760  49.7845225  58.8399889  61.2264797  50.3070744
  76.4786169  53.8637218  54.6197189  76.8596681  53.1815389  55.0065063
  75.6749453  53.5746820  54.4372853  76.4162631  53.7204266  54.6501245
  73.7598746  64.3961194  45.3050012  74.5739384  64.6876087  45.1932783
  73.6957887  63.7421056  44.7308305  73.8701485  64.3426388  45.2038849
  69.6306654  67.8682711  50.4322324  70.2680601  67.6294459  50.9774117
  70.0561725  68.0719870  49.6975484  69.7882820  67.8633721  50.4039481
  64.3219296  70.1071048  54.3156628  64.3623441  70.3785899  53.4876407
  64.8813820  70.6312956  54.7314415  64.4102642  70.2246803  54.2548516
  70.2709469  63.0885001  44.7697213  70.6554622  62.8692708  45.5213758
  70.0221089  63.9147946  44.8998290  70.2911541  63.1783147  44.8998290
  70.4378009  56.3691416  64.4859797  70.1231450  57.1390979  64.2229360
  70.1167942  55.8061672  63.9012024  70.3436928  56.4001685  64.3601147
  72.0128126  68.3455134  52.1116110  72.0867134  68.1830306  52.9657960
  72.8297632  68.5345323  51.8676592  72.1444484  68.3491876  52.2014136
  65.7733882  68.6912997  49.1410554  64.9472000  68.9374734  49.0144832
  65.8345874  68.6125078  50.0072612  65.6608049  68.7157946  49.2499498
  67.9909906  54.7581938  50.1005994  67.1232332  54.8304537  50.1663603
  68.2785111  55.5604017  50.2893969  67.9049654  54.8876085  50.1380760
  77.1142795  54.9059797  58.4317316  77.8596387  54.7169607  58.0180741
  76.6980100  55.4318035  57.8731172  77.1627769  54.9561942  58.2881889
  70.5532711  71.3089877  46.8429583  70.8431010  70.9178858  46.1188810
  71.2836192  71.4906582  47.2834859  70.7039596  71.2783691  46.8012390
  71.1427457  66.1107623  57.9282714  70.6439150  66.8223391  58.0067602
  71.9527681  66.4308289  57.8900876  71.1883563  66.2634471  57.9339282
  68.4938627  73.2857259  49.9089733  68.2738922  72.9954614  50.7016400
  68.2733149  72.6272214  49.3807646  68.4286221  73.1456968  49.9478642
  67.4055574  65.3730576  52.1745435  67.1168823  64.7468047  52.7091162
  68.2738922  65.3150863  52.2410115  67.4915826  65.2718120  52.2636389
  78.1933472  60.5165359  52.4927417  77.8498238  59.7955694  52.8434666
  78.2926515  60.3079210  51.6505775  78.1575515  60.3789562  52.4199097
  67.6087848  67.0125827  48.0987800  68.3633816  67.3938866  48.3123262
  67.0158460  67.4636971  48.5534496  67.6324561  67.1354654  48.1970678
  70.0694515  58.9688667  63.2245012  69.2594290  59.2746447  63.1134854
  70.5469201  59.6894250  63.3397596  70.0197993  59.1203268  63.2252083
  68.9286074  68.1834388  53.4727915  68.4066828  68.3234680  54.1579780
  69.3160095  67.4245053  53.6630033  68.9089775  68.0919912  53.6028992
  65.9177258  58.2340197  47.5422870  65.6302054  57.8641467  46.8054817
  66.6047726  58.7035052  47.2806575  65.9766156  58.2487166  47.3937946
  70.3552400  65.2138407  48.8709406  70.1595182  65.8213142  48.2769709
  70.5786745  64.5206351  48.3901080  70.3587041  65.2015933  48.7125487
  68.7530930  62.0993145  48.9890275  69.4753582  62.2634303  48.5294081
  68.2738923  62.8202810  48.8829614  68.7894661  62.2291375  48.9055889
  76.7124437  58.4356944  54.3686960  75.8735538  58.4618223  54.1325223
  76.7828805  59.0827679  54.9492306  76.5992831  58.5353070  54.4196076
  66.4038547  64.5051218  58.0944415  66.9159643  64.7835471  57.4453174
  66.1174889  65.2440512  58.4607228  66.4373410  64.6553571  58.0534293
  75.1593716  55.3342321  49.1014576  75.8620069  55.1350069  48.6234534
  74.8937904  54.5618263  49.4083419  75.2240348  55.1905287  49.0760017
  63.4905453  59.0121409  48.3908151  63.5921589  59.8147571  48.7189126
  64.2861340  58.8108745  48.0931232  63.6233358  59.1007308  48.3943506
  69.9222272  56.5977606  58.1545456  69.7305469  56.6132741  59.0044880
  70.7720868  56.7941280  58.1312111  70.0197994  56.6291957  58.2768751
  64.3069185  59.1268588  56.1329273  64.1654677  58.2752528  56.2573781
  64.5909748  59.1697248  55.3091479  64.3277031  59.0068338  56.0296897
  74.4607777  60.9635678  50.2773761  74.2142492  60.8831429  51.1110550
  74.7892900  60.1789146  50.0836288  74.4729021  60.8361943  50.3721284
  70.4204805  63.6992396  59.6896744  70.5648180  64.2793605  59.0539854
  70.7680453  64.0768693  60.3946599  70.4932266  63.8413100  59.6995739
  72.5924722  62.8982565  57.4721876  71.8448036  63.0913579  57.0670154
  72.7466247  62.0727784  57.2345997  72.5047150  62.8047676  57.3767281
  72.8326499  56.7933115  58.3617279  73.2899113  57.5257090  58.4890071
  72.9082828  56.3699581  59.1204535  72.9117469  56.8390354  58.4918356
  65.0759490  57.0398935  59.4506723  64.5401680  56.4279293  59.7667490
  65.1377255  57.6147071  60.1040390  65.0055123  57.0345863  59.5942150
  72.6756107  70.5810810  48.6665868  73.4405998  70.3120454  48.3448532
  72.5734197  70.0960820  49.3835930  72.7737603  70.4700375  48.7245695
  70.7108877  58.7835219  55.2059103  69.9204952  58.6026680  55.5276439
  71.1069500  58.0062172  55.1889398  70.6525753  58.6422680  55.2511652
  75.1974768  67.6122994  40.6465817  75.9647753  67.6723119  40.2371669
  74.7506077  67.0403435  40.1622135  75.2448195  67.5359569  40.5143527
  76.0952563  66.4177650  52.9318549  75.4197565  66.1862882  53.4331936
  76.1044939  65.8098833  52.3060654  75.9971068  66.2936575  52.9134701
  71.9065801  63.9527618  53.8298805  71.4828050  64.1532117  53.0937823
  71.7310656  63.1056466  53.9423105  71.8176682  63.8576399  53.7372495
  67.1948246  64.4479669  49.2626778  67.3512865  64.3826472  50.1182770
  67.5348839  65.2228222  49.0505457  67.2681481  64.5528867  49.3581372
  73.7327391  63.8237553  48.1320141  74.2742936  63.3207934  48.5958761
  74.0473950  63.7702748  47.3209626  73.8591788  63.7416974  48.0803953
  71.9013840  69.2154904  45.4160169  71.9706661  68.3569443  45.5553169
  72.6802296  69.4326785  45.0879193  72.0266690  69.1207768  45.3877326
  74.8816660  58.7173857  58.1842441  75.0958630  58.0784772  57.6305795
  74.2650559  59.1619681  57.7550303  74.8221989  58.6884001  58.0392872
  63.7682508  61.6314620  49.5787545  64.1481472  62.0499165  48.9147812
  63.1937872  62.2128075  49.8856388  63.7393832  61.7792479  49.5264286
  77.0455748  60.3262923  59.1225748  76.2332430  60.0188813  59.2038921
  77.5045683  59.8461923  59.6868461  76.9936133  60.2099415  59.2180343
  76.4561003  68.2042595  49.5702693  76.0975657  68.3757237  50.3466725
  75.9699714  68.6655800  49.0130691  76.3319700  68.2981566  49.6027962
  74.2731389  51.8273793  53.1729784  73.4024947  51.8012514  53.1263094
  74.5271730  51.6550985  52.3555630  74.1824949  51.7983937  53.0449921
  71.2449368  63.8841760  42.1102927  71.5341893  64.6606642  42.3846501
  71.3321167  63.3730491  42.8117426  71.3003624  63.9233678  42.2545425
  71.2980529  53.8380022  54.6303254  70.7819018  53.1460213  54.7554833
  70.7374458  54.5050799  54.5765853  71.1387042  53.8343279  54.6409320
  73.3672763  54.3772982  56.4596107  72.9804516  54.4022013  57.2409637
  72.8805700  53.8114660  56.0070624  73.2385272  54.2968732  56.5084011
  73.0329904  51.2639967  58.7506367  73.6623022  51.8000267  58.4727437
  73.2015767  51.1717326  59.6019933  73.1507699  51.3301329  58.8354895
  72.8343819  56.0511162  61.0232779  73.6617249  55.7796311  61.0791393
  72.8551665  56.8472003  61.3796597  72.9596669  56.1290916  61.0847961
  67.4113309  63.1975025  54.2103039  66.5701316  63.0978899  54.4181933
  67.6203317  63.9670505  54.5617360  67.3178002  63.2967068  54.2930354
  64.8888876  60.8194561  52.0387790  64.4945574  60.8937573  51.2637900
  64.3328993  61.2052508  52.5896152  64.7491688  60.8876336  52.0055450
  76.5253823  53.7975856  51.7191669  76.7303416  53.7298163  52.5648666
  76.1980247  54.6034677  51.6512846  76.5069071  53.9061796  51.8351324
  71.2229974  61.1256424  53.4600637  70.9193111  60.5712412  54.0611044
  70.5209395  61.3048634  52.9728671  71.0746184  61.0701206  53.4770342
  70.2796071  58.4356944  48.0245339  70.5555805  57.7175856  47.6122906
  70.8794740  59.0341863  47.8166445  70.4089336  58.4177314  47.9326100
  69.2848325  68.3406144  58.1672735  69.1768680  68.3508207  59.0334793
  69.4944106  69.1660925  57.9777688  69.2998436  68.4647219  58.2676826
  73.7806592  56.1070461  46.2991934  74.2350338  56.2781021  47.0239778
  74.2546637  55.4938572  45.8989709  73.9174912  56.0421346  46.3465695
  67.3022117  65.5918787  55.6294672  66.7110050  66.2328285  55.5997687
  68.0643141  66.0156404  55.6025972  67.3270378  65.7494625  55.6209819
  67.6982740  56.7520785  56.2962690  68.1584221  56.8259714  57.0337813
  67.7438846  57.5502039  55.9462511  67.7733295  56.8814932  56.3535446
  69.3466089  57.4187479  60.8634717  68.9551655  56.7720827  61.2990495
  69.5151952  58.0098915  61.4828972  69.3137000  57.4101747  61.0197423
  71.1219612  62.8112995  47.4036941  71.8661656  63.1987272  47.6419891
  71.2680308  61.9670421  47.5677429  71.2530197  62.7443468  47.4630911
  73.0399187  54.6063254  52.4368802  72.1935232  54.7786062  52.3110152
  73.0370319  53.8012598  52.7734631  72.9146337  54.5124283  52.4679929
  74.1097487  58.3838469  53.3030860  73.6357442  57.8580231  53.8136171
  74.4815623  57.8367941  52.7345722  74.0947376  58.2254465  53.2946007
  64.4870518  60.3809975  58.6714406  65.3496131  60.2805684  58.5851736
  64.1562301  59.8004685  58.1099978  64.5655714  60.2801602  58.5759812
  76.0380987  59.2775023  46.3656614  75.5104006  59.3603767  45.6762323
  76.4976695  60.0192895  46.3621259  76.0282838  59.3995686  46.2631309
  67.8472304  59.2052424  55.3324824  67.2225374  59.2170816  54.7250777
  67.5117898  59.6812599  55.9816064  67.7057795  59.2770941  55.3381393
  68.0314052  57.5477543  41.3897509  67.6826857  58.1997268  41.8529058
  67.5510498  57.5334656  40.6621380  67.9084296  57.6420596  41.3508600
  64.5597979  67.2652884  56.7728588  64.0297904  66.5745323  56.8223563
  64.8323072  67.2563070  55.9441297  64.5222701  67.1620016  56.6576004
  75.5918070  67.8478587  45.4966271  76.3152268  68.3136700  45.3530844
  75.1518661  67.9152196  44.7463868  75.6333762  67.9262423  45.3651052
  74.7604225  64.7076129  56.7466960  74.1461218  64.1634179  57.0415595
  75.2771510  64.1940365  56.2672776  74.7459887  64.5512538  56.7191188
  74.0000522  65.7780399  54.4811259  73.5728130  65.1530118  54.0476694
  73.9925466  65.4955321  55.3070266  73.9359663  65.6433180  54.5391086
  67.1163049  60.8145572  57.5499693  67.2756536  60.0588896  57.9551415
  66.9355943  61.3636512  58.2040430  67.1128408  60.7839386  57.7062399
  75.0583352  52.9806808  58.1050482  74.5623913  53.1770482  57.4142049
  75.8152414  53.3799476  57.9339284  75.0970177  53.0684541  57.9770619
  72.3286231  56.6549154  54.6953793  72.3528719  56.1209266  54.0066573
  72.5797705  56.1466462  55.3579383  72.3696150  56.5010057  54.6918437
  59.8393821  63.9380649  54.1296937  59.7337270  63.8927493  53.2649021
  59.0894041  64.2834429  54.4111222  59.7129424  63.9821557  54.0434266
  68.6087554  55.3819972  54.0759537  68.6485925  55.8829178  54.7894244
  67.7837218  55.4730365  53.8065460  68.4927080  55.4701788  54.1410075
  70.0301917  61.8980482  56.3733436  69.1993847  62.0654300  56.1668684
  69.9753434  61.5216432  57.1582321  69.8991332  61.8670213  56.4581964
  67.8385700  55.3889375  62.0089847  68.4638404  54.8451507  62.2819279
  67.3836180  54.9084292  61.4397637  67.8633961  55.2378856  61.9651440
  68.4037961  60.1736073  46.9023554  68.5440922  60.6708537  47.6052195
  68.9020494  59.4722368  47.0437767  68.4979042  60.1438052  47.0275133
  68.4338183  61.0403184  44.2316130  69.0683263  61.6363609  44.1665592
  68.5163794  60.7406642  45.0462001  68.5394734  61.0844092  44.3419217
  70.0117166  56.9717160  44.2061572  70.3333007  56.4920242  43.5520835
  70.2744110  57.7816806  44.0152384  70.0983192  57.0207058  44.0817065
  75.4076321  56.3589354  56.5685052  75.8331393  55.9061880  55.9568578
  74.7933314  55.8049424  56.8449839  75.3804967  56.2103330  56.5190077
  64.9391171  63.2371025  47.5005677  65.4483401  63.8335532  47.8816982
  65.4125443  62.9696999  46.8182096  65.0834547  63.2856840  47.4560199
  73.8470544  52.8304453  49.9775629  73.2038862  52.6802100  50.5460767
  73.5069951  52.5846799  49.2124733  73.7015621  52.7716576  49.9478644
  67.2981703  59.8727284  50.3678857  66.5793692  60.2891416  50.6351720
  67.6694065  60.4381522  49.8170495  67.2473635  60.0176565  50.3261664
  76.5981284  60.5055132  56.2580853  76.5779211  60.3238428  57.1115632
  76.6460484  61.3767151  56.2340436  76.6015925  60.6071671  56.3804147
  73.0728277  58.9125283  45.7052236  72.4793117  59.2342280  45.1536803
  73.1103555  58.0666379  45.4973343  72.9902666  58.8349612  45.5935008
  75.9486094  58.8704788  49.1353987  75.7199787  58.8937489  48.2932345
  76.2084170  58.0462255  49.2548997  75.9532282  58.7520868  49.0279184
  70.2305322  60.7239261  58.7379087  69.7184225  60.1160444  59.0964118
  70.0584818  61.4395853  59.2053063  70.1294959  60.7402560  58.8595310
  65.0771037  59.1676836  61.3881449  64.9073627  59.8278211  60.8429655
  64.6336987  59.3783398  62.1093938  64.9870371  59.2962818  61.4143078
  69.0030856  57.4081334  50.4308182  69.4788223  57.7698414  49.7958363
  68.5019456  58.0637802  50.7108325  68.9996215  57.5575523  50.3784923
  74.1074393  58.6463506  61.1781342  74.6645823  58.4177315  60.5459808
  73.7835458  59.4069171  60.9016555  74.1420803  58.7247342  61.0437839
  61.9773102  62.0723702  56.6469938  61.4299821  61.4024347  56.7650807
  62.7665480  61.7053550  56.7113406  62.0125285  61.9188688  56.6738639
  71.0457510  59.5522534  43.7981566  71.4256474  59.5702163  43.0132681
  70.3050106  59.9976523  43.6772414  70.9926347  59.6204309  43.6645134
  78.6742800  57.8604725  49.3857145  78.6737026  57.7053382  50.2441421
  78.4698980  58.7067712  49.3298531  78.6442578  57.9625346  49.5045084
  60.7360071  61.2844510  53.8015962  60.5581832  60.8321119  54.5270877
  60.4479093  62.0870671  53.9854439  60.6673024  61.3367067  53.9359464
  76.3983652  62.5402227  53.0393352  76.8937317  61.8225222  52.9997372
  75.5883428  62.2373025  52.9247839  76.3527545  62.3899873  53.0167078
  71.8442264  66.3900040  45.1890356  71.0353586  66.0666714  45.1423666
  72.3517172  65.6833262  45.1218605  71.7991930  66.2381357  45.1720651
  62.4732541  63.8172233  50.9137721  61.6078060  63.8057924  50.8020492
  62.5731357  63.6302456  51.7608860  62.3606708  63.7878295  51.0226665
  68.0989551  73.5870132  54.4867826  68.4136110  74.4006520  54.4945608
  68.5082964  73.2020351  55.1549985  68.2057649  73.6498834  54.5871918
  75.0514070  69.0040179  52.0571638  75.5225249  69.7180441  52.2261623
  75.3874249  68.4038929  52.5931508  75.1709185  69.0211643  52.1604014
  71.9683565  53.7767649  59.0129733  72.1011471  52.9798643  59.3410708
  72.3528718  54.3034052  59.5928008  72.0439894  53.7367566  59.1473236
  75.0415921  50.6997975  55.6110826  74.2361884  50.5895705  55.9278664
  74.9122656  50.8010431  54.7540692  74.9036053  50.6981646  55.5318866
  78.4981881  56.8643467  56.2050523  77.9144870  57.3652674  55.7928090
  78.8186175  56.3573024  55.5714846  78.4595056  56.8635302  56.0509030
  71.0376680  55.7784062  46.4809198  71.8592375  55.9482375  46.2390893
  70.5746331  55.9331323  45.7575495  71.0907843  55.8265795  46.3380842
  69.6272012  53.7726824  57.2607627  70.1716425  53.4317951  57.8511968
  69.6808948  54.6312286  57.4028911  69.7161132  53.8482084  57.3689500
  65.4402571  67.5343240  54.1346434  66.0447428  67.4939075  53.5060255
  65.2329883  68.3814392  54.1650490  65.4991468  67.6531243  54.0462551
  60.6753853  66.5177858  54.0045358  60.5778131  65.7074129  54.3135414
  61.4582723  66.4969651  53.6191626  60.7769990  66.3944948  53.9932221
  35.1121308   0.9449306  35.7681757  34.3604207   0.5664844  35.5397802
  35.5607319   0.9767739  35.0200567  35.0670974   0.8934913  35.6239259
  40.5646267   1.3674675  31.1967304  40.2297636   2.0451597  30.7611526
  41.0773138   0.9779986  30.6084176  40.5911849   1.4099253  31.0454096
  40.1050559   3.3188944  37.1378416  40.4889938   3.8875842  36.5983191
  40.0409700   2.5938454  36.6584232  40.1523986   3.2964407  36.9872278
  36.6906064   0.9567698  38.0344530  36.7916427   0.1468052  38.3441657
  36.0947809   0.8624644  37.4044208  36.6178602   0.8232726  37.9870768
  36.5306803   5.8745287  39.4359386  37.1744259   6.3158451  39.8255544
  36.8563059   5.0698713  39.3489644  36.6738632   5.8210482  39.4804863
  29.8871108  -3.0212016  37.6596863  29.6521293  -3.8544363  37.5529132
  30.0256749  -2.7407350  36.8458064  29.8726771  -3.1028512  37.5239218
  37.2327383  -1.1142738  34.8079247  37.5543224  -0.5737531  34.2040555
  37.8799480  -1.6845967  34.9401537  37.3753438  -1.1183563  34.7386283
  31.4488433   1.8573655  38.9353069  30.9656011   2.5824145  38.9112653
  32.2611751   2.1549785  39.0463227  31.4979180   2.0076009  38.9480349
  37.5202587   0.6505836  41.5402884  37.0029528   0.2913251  40.9364192
  38.2176978   0.1268010  41.5508950  37.5468168   0.5203524  41.4533143
  41.1766179   1.1000650  47.5019057  41.2649525   0.9126790  48.3497267
  41.6055891   0.4538079  47.1023904  41.2528281   0.9763658  47.5690808
  38.7436639   0.3831810  46.4836719  38.1807473  -0.0295580  47.0076380
  39.5057662   0.3084716  46.9029862  38.7731087   0.3109210  46.6229719
  34.3032630   2.3729831  39.0873349  35.0053209   1.8581820  39.1446106
  34.2230113   2.7003982  39.8920224  34.3956390   2.3444057  39.2146141
  33.6283405  -1.4363817  38.5958957  34.4672305  -1.2040884  38.6432719
  33.6595175  -2.3059506  38.5265993  33.7565123  -1.5306870  38.5923602
  34.2536108  -1.0162942  42.8972263  34.7934333  -1.1591811  43.5675635
  33.5706055  -0.6166191  43.2656289  34.2328262  -0.9783271  43.0506684
  41.2886238   0.5309669  50.1662840  42.0726655   0.6440517  50.5318583
  41.0882833  -0.2949194  50.3621526  41.3752263   0.4256388  50.2497226
  41.4456631   2.4419771  43.8129296  40.6471877   2.2019271  44.0703165
  41.8942643   2.4934164  44.5596344  41.3931243   2.4142162  43.9614220
  30.0666667  -4.0103872  40.3318429  29.8842240  -4.0356986  39.4790721
  30.8016336  -3.5404934  40.3707337  30.1480731  -3.9442509  40.2116347
  36.4059727  -1.7495081  37.3662371  37.0433674  -1.9883334  37.9114164
  36.8314799  -1.5457922  36.6315531  36.5635893  -1.7544071  37.3379528
  31.0972369   0.4893255  41.2496674  31.1376515   0.7608106  40.4216454
  31.6566893   1.0135163  41.6654462  31.1855715   0.6069010  41.1888563
  38.7881199  -1.2722659  39.0456157  38.8620207  -1.4347487  39.8998007
  39.6050705  -1.0832469  38.8016639  38.9197558  -1.2685916  39.1354182
  32.5486956  -0.9264796  36.0750600  31.7225073  -0.6803059  35.9484879
  32.6098947  -1.0052715  36.9412658  32.4361123  -0.9019847  36.1839545
  37.3285785   1.6912084  33.7769630  37.6184083   1.3001066  33.0528857
  38.0589266   1.8728789  34.2174906  37.4792669   1.6605898  33.7352437
  35.2691700   3.6679467  36.8429780  35.0491996   3.3776821  37.6356447
  35.0486222   3.0094422  36.3147692  35.2039294   3.5279175  36.8818689
  37.4359656   5.0408857  35.6260472  38.0883714   4.5085299  35.8551498
  36.7385265   4.6877509  36.0128346  37.4290374   4.9098380  35.7172640
  34.3840921  -2.6051966  35.0327847  35.1386889  -2.2238927  35.2463309
  33.7911534  -2.1540822  35.4874543  34.4077634  -2.4823138  35.1310725
  35.7039147  -1.4343404  40.4067962  35.1819901  -1.2943113  41.0919827
  36.0913168  -2.1932740  40.5970079  35.6842848  -1.5257881  40.5369039
  41.9006152   0.3052055  34.3928531  41.6592828  -0.4280084  33.9855596
  42.0807485   0.8538912  33.7394864  41.8913776   0.2774446  34.2358754
  36.2685633   2.2717376  43.4897818  36.4175197   1.7120292  42.8371222
  37.0485635   2.3509377  43.8730336  36.4059726   2.2002941  43.4494767
  38.7938933   2.4432019  44.7682308  38.7182605   1.7740829  45.3233097
  38.7228793   3.1449807  45.2822975  38.7719540   2.4476926  44.9259157
  39.4509180   0.9633017  35.6005914  40.2159071   0.6942661  35.2788579
  39.3487270   0.4783028  36.3175977  39.5490676   0.8522582  35.6585742
  38.1830568   5.8500338  43.2260309  38.6726498   5.1511128  43.0435974
  37.6114800   5.5524208  43.8136367  38.1715098   5.7026562  43.2861350
  38.6766914  -0.4022888  32.3500216  38.7459734  -1.2608350  32.4893216
  39.4555369  -0.1851007  32.0219240  38.8019764  -0.4970024  32.3217373
  43.0674401   2.0214813  36.5636709  42.6754193   1.7181528  35.8459575
  43.2227473   2.8583903  36.3741663  43.0327991   2.0998650  36.4293206
  36.0601398  -1.2771648  45.1012781  35.9521753  -1.2669586  45.9674839
  36.2697180  -0.4516868  44.9117735  36.0751509  -1.1530573  45.2016873
  43.8364706   1.4250306  39.9966743  43.6384395   1.9141120  39.3022955
  43.2152417   1.6291547  40.5750877  43.7152271   1.5266844  39.9789967
  31.3351052  -2.3524908  43.7068635  30.8050977  -3.0432469  43.7563610
  31.6076146  -2.3614723  42.8781344  31.2975775  -2.4557776  43.5916051
  26.6146895  -5.6797144  41.0636984  26.5090344  -5.7250300  40.1989068
  25.8647114  -5.3343364  41.3451268  26.4882497  -5.6356236  40.9774313
  40.0167212  -1.6241759  44.6600435  39.5092303  -1.0705912  45.1041066
  39.7193858  -1.5633469  43.8419210  39.8972097  -1.5335447  44.6048892
  42.6274992   2.2921499  32.5904379  41.9104302   2.1182361  32.1251616
  43.2781730   2.0574071  32.0579865  42.6176843   2.2317292  32.4433597
  39.2609697   3.3082800  41.5657442  39.0375352   2.5501629  41.9341469
  38.7719541   3.3380821  40.8437882  39.1553146   3.2005024  41.5134183
  37.9088154   3.5283258  39.0194527  37.4948553   2.8657388  38.6298369
  38.5935529   3.6761116  38.4990221  37.9486526   3.4523916  38.8851024
  41.2753448   2.6873343  39.7718143  40.8769732   2.7975613  39.0038964
  40.6604668   2.8955409  40.3544703  41.1252338   2.7346911  39.7449443
  34.8742624   3.9692339  41.4207873  35.1889183   4.7828728  41.4285655
  35.2836037   3.5842558  42.0890032  34.9810722   4.0321042  41.5211965
  43.9144128   0.9963700  51.1703757  44.0241094   0.2072260  51.5260504
  44.2435025   0.9069636  50.3678095  43.9796534   0.8669552  51.1046148
  32.2155644  -2.0834552  41.0686481  32.8200502  -2.1238718  40.4400302
  32.0082957  -1.2363400  41.0990537  32.2744541  -1.9646550  40.9802598
  42.0299416   0.1831393  42.2848719  42.8497790   0.0394359  42.5465014
  41.7493494   0.8077592  42.8265157  42.1096160   0.2541745  42.4036658
  27.4506926  -3.0999935  40.9385404  27.3531204  -3.9103663  41.2475461
  28.2335796  -3.1208141  40.5531673  27.5523063  -3.2232844  40.9272267
  58.5013067   7.8396245  35.2491595  58.4707071   8.6940881  35.4209864
  59.0994415   7.5391537  35.8077739  58.5850225   7.9212741  35.3566397
  51.7012751   6.9271896  40.0044525  50.8450647   7.0880394  40.0553642
  51.7480405   6.0563960  40.0249587  51.5811863   6.8222698  40.0150591
  55.0106468  13.1958421  49.6104982  55.7173235  12.7010452  49.7391916
  55.1994403  13.6367503  48.8807640  55.1434374  13.1876772  49.5214027
  51.5378851  16.8859983  31.1967304  51.2030220  17.5636905  30.7611526
  52.0505722  16.4965294  30.6084176  51.5644432  16.9284561  31.0454096
  51.0783142  18.8374252  37.1378416  51.4622522  19.4061150  36.5983191
  51.0142284  18.1123762  36.6584232  51.1256570  18.8149715  36.9872278
  54.5464573   8.9863940  42.6476177  55.0920533   9.6649026  42.7070147
  54.4881449   8.8451401  41.7877759  54.6180487   9.0655941  42.5288238
  56.3229641  10.4148547  33.5209905  56.2069167  11.1656233  33.9502043
  57.1185528  10.1572500  33.7705992  56.4234231  10.4883394  33.6213997
  40.8603692  12.4973292  37.6596863  40.6253876  11.6640945  37.5529132
  40.9989332  12.7777958  36.8458064  40.8459354  12.4156796  37.5239218
  43.1593779   4.6659023  40.5581171  42.5398811   4.0751670  40.3891186
  43.0577643   5.2570458  39.9245494  43.0531455   4.6663105  40.4386160
  50.2561675   6.4058565  34.8913634  50.9541839   6.5846692  35.3835097
  50.5714007   5.8828904  34.2684023  50.4057012   6.3552337  34.8715644
  42.8862912   8.2111305  42.8024740  42.7621609   8.7973750  43.4374559
  43.5381197   7.7171500  43.1037015  42.9636561   8.2250109  42.9410669
  47.9121253  11.3873022  42.0812251  48.5570256  10.8945465  41.7623199
  48.1523030  11.5297808  42.9078329  48.0431838  11.3350464  42.1561784
  50.4507345  14.2327927  41.7319144  50.7330587  13.4379333  41.5105899
  51.1793505  14.7108515  41.7524205  50.5996908  14.1862524  41.7022159
  48.4288538   1.7750961  38.9734909  48.0991868   2.2262105  38.3038607
  47.7533540   1.6967125  39.5207915  48.2798975   1.8302097  38.9558132
  54.0458947  11.1456191  31.8324195  53.9610242  12.0017158  31.9773764
  54.5343330  10.8700515  32.5006354  54.1047844  11.2313512  31.9526276
  54.9777380   7.7640985  33.3321930  54.4488851   7.9800619  33.9919236
  55.5002400   8.4577124  33.2522899  54.9765833   7.8984122  33.4177529
  60.4325433  13.3387290  38.7054974  59.6023136  13.5497933  38.8688391
  60.3834685  12.5124344  38.4297258  60.3032168  13.2476896  38.6892340
  46.8676988  11.6604202  32.1329398  46.2834203  12.1654233  32.5395262
  46.4647083  11.4346589  31.3925990  46.7216292  11.7012450  32.0834423
  52.1498762  16.6185958  47.5019057  52.2382108  16.4312098  48.3497267
  52.5788475  15.9723387  47.1023904  52.2260865  16.4948966  47.5690808
  51.3254202   7.9069854  30.6098318  51.5650206   8.1147838  29.7973662
  51.6470043   7.1027363  30.7187263  51.4091360   7.8183955  30.5058871
  59.9279391   5.9857690  42.5005396  59.0907812   6.0559877  42.7352990
  59.8967622   5.9882185  41.6279698  59.7997674   5.9967917  42.4064944
  46.3244120   8.1290726  48.2153764  46.4964624   8.0196621  49.0639046
  46.8613478   8.7745131  47.9784957  46.4289124   8.2082728  48.3058861
  44.9901557   2.2433569  31.1535969  44.8077130   2.4605450  30.3276962
  45.8527170   2.3572581  31.2094584  45.0906147   2.2923467  31.0390456
  54.6509577  10.1813367  38.0917287  55.4067092  10.6144881  38.1306196
  54.7571901   9.5318137  38.6651923  54.7779748  10.1490851  38.1815313
  57.6889748  14.0086644  38.8419690  57.2524980  14.0123386  39.5978662
  57.3552664  14.6892143  38.4099268  57.5752368  14.1099100  38.8900523
  52.2618822  16.0494977  50.1662840  53.0459238  16.1625825  50.5318583
  52.0615416  15.2236114  50.3621526  52.3484847  15.9441696  50.2497226
  40.6305837  10.7222657  43.0506684  40.3644252   9.9061774  43.2097675
  40.6444401  10.7675813  42.1802200  40.5930559  10.6079562  42.9460166
  44.5363584   5.5207741  29.6658442  43.8221761   5.2345921  30.0780875
  45.0207553   5.8604367  30.3064830  44.5022947   5.5289391  29.8214077
  45.3804443   4.2601035  45.6973692  44.6876240   3.7898015  45.9434424
  45.9964771   4.0339340  46.2715399  45.3688973   4.1568167  45.8182845
  60.8234094  10.7267564  37.7339327  61.4850528  10.1658232  37.6335236
  60.1825506  10.2319595  38.0592019  60.8262962  10.5703973  37.7671668
  51.7110902  14.0237695  30.0420251  52.1262050  13.6922719  29.3504746
  50.8802832  13.7906598  29.9140387  51.6498911  13.9408951  29.9211098
  41.0399251  11.5081436  40.3318429  40.8574824  11.4828322  39.4790721
  41.7748920  11.9780374  40.3707337  41.1213315  11.5742799  40.2116347
  57.1098925  11.7432946  37.4751316  57.3454514  11.8878145  36.6478167
  57.2588489  12.5075354  37.8682830  57.1664728  11.8772001  37.4114920
  44.1045002   8.2266439  46.8400537  44.8284975   8.2119470  47.3265432
  44.2061139   8.9361795  46.3422505  44.2263211   8.3291142  46.8379324
  58.9389382  10.5834612  35.3120920  59.2697599  11.1162252  34.7061015
  59.5122470  10.6373500  35.9682871  59.0723061  10.6704181  35.3198702
  51.4789952  11.7065524  51.7049484  50.6862933  12.0209036  51.8902104
  51.5938879  11.9216992  50.8670269  51.3785362  11.7849361  51.6087819
  54.1521271   8.4299515  35.9944500  54.2468125   9.1688809  36.4484126
  53.5280114   8.0016990  36.4279065  54.0730301   8.4760836  36.1252648
  52.4073745  11.6085728  46.6434781  52.9812606  10.9712972  46.7983345
  52.3288548  11.6089810  45.7744439  52.4806980  11.5150839  46.5381192
  41.0070161   8.3874937  40.4817495  41.5843664   8.2511388  41.1209741
  40.3084223   7.9310721  40.7363080  40.9891182   8.2997203  40.6139785
  54.4044292  10.2748255  29.2281452  54.3224455  10.3450442  30.0936439
  55.0424013  10.8377999  29.0365193  54.4864129  10.3687226  29.3271402
  47.7637463  10.0408993  38.6955978  47.5056708   9.2080728  38.6687278
  47.8185946  10.2666606  37.8548479  47.7337241   9.9506764  38.5676115
  46.7372175   7.5946755  39.1820873  46.1621767   7.7538924  39.8184834
  46.3607852   6.9582164  38.7189324  46.5974988   7.5244568  39.2075432
  50.4045464   6.0670104  44.0413252  50.0159897   5.6424322  43.3865443
  49.7400162   6.3152254  44.5490278  50.2492392   6.0408826  44.0201120
  36.4828994   7.2386830  37.1965314  36.5689246   6.8618698  37.9778844
  37.1104792   6.8647276  36.7185272  36.5885545   7.1272312  37.2410791
  51.5084402  10.2968709  32.2390059  52.3225041  10.5883602  32.1272830
  51.4443544   9.6428571  31.6648351  51.6187141  10.2433904  32.1378896
  57.7293892  12.9794705  46.6519634  57.4932530  12.1482770  46.5331695
  58.3737121  12.9280312  47.2374478  57.7888563  12.8492393  46.7205528
  48.0195126   8.9892516  31.7037260  48.4040278   8.7700223  32.4553805
  47.7706746   9.8155462  31.8338336  48.0397198   9.0790663  31.8338336
  48.1863666   2.2698931  51.4199844  47.8717107   3.0398494  51.1569407
  47.8653599   1.7069188  50.8352071  48.0922585   2.3009200  51.2941194
  58.7530313  12.7639154  42.7147929  58.4476130  13.4967211  43.0761244
  58.0336529  12.3577083  42.4340715  58.6017655  12.8120887  42.7261066
  64.4532105   9.4032155  42.0416273  64.3856606   9.4228114  41.1718859
  64.4387768  10.2462482  42.2671943  64.4410862   9.5305889  41.9468750
  43.5219539  14.5920512  36.0750600  42.6957657  14.8382249  35.9484879
  43.5831530  14.5132593  36.9412658  43.4093706  14.6165461  36.1839545
  45.7395563   0.6589453  37.0346041  44.8717988   0.7312052  37.1003650
  46.0270767   1.4611532  37.2234016  45.6535311   0.7883600  37.0720807
  62.2390723   8.1776541  40.3162867  62.7898644   7.5444610  40.5559959
  62.2234838   8.7091934  41.0078372  62.3175919   8.1625489  40.4541726
  48.8913113  12.0115138  44.8622761  48.3924807  12.7230906  44.9407649
  49.7013338  12.3315805  44.8240923  48.9369220  12.1641987  44.8679329
  45.1541231  11.2738091  39.1085482  44.8654480  10.6475562  39.6431209
  46.0224579  11.2158379  39.1750162  45.2401483  11.1725635  39.1976436
  55.9419129   6.4172875  39.4267464  55.5983895   5.6963210  39.7774713
  56.0412171   6.2086726  38.5845822  55.9061172   6.2797078  39.3539144
  56.4032158  12.8798579  34.9691452  56.9690191  13.5391788  34.8849995
  55.7560061  13.2248277  35.4407854  56.3910914  13.0280520  35.0264208
  47.8180171   4.8696183  50.1585059  47.0079947   5.1753962  50.0474901
  48.2954858   5.5901765  50.2737643  47.7683650   5.0210784  50.1592130
  43.6662915   4.1347712  34.4762917  43.3787711   3.7648983  33.7394864
  44.3533383   4.6042568  34.2146622  43.7251812   4.1494682  34.3277993
  52.8738736  15.8237363  34.3928531  52.6325412  15.0905223  33.9855596
  53.0540069  16.3724220  33.7394864  52.8646360  15.7959754  34.2358754
  46.5016587   8.0000661  35.9230322  47.2239239   8.1641819  35.4634127
  46.0224579   8.7210325  35.8169661  46.5380317   8.1298890  35.8395935
  54.4610094   4.3364459  41.3027006  53.6221195   4.3625738  41.0665270
  54.5314462   4.9835195  41.8832353  54.3478488   4.4360585  41.3536123
  44.1524203  10.4058733  45.0284461  44.6645300  10.6842986  44.3793221
  43.8660546  11.1448027  45.3947274  44.1859066  10.5561087  44.9874339
  58.3367618   9.5432446  38.5888248  58.2501593   9.6987872  39.4423027
  57.8818098  10.1870522  38.2147653  58.2570875   9.6608201  38.6595355
  41.2391110   4.9128925  35.3248198  41.3407246   5.7155086  35.6529173
  42.0346996   4.7116261  35.0271278  41.3719015   5.0014824  35.3283553
  47.6707929   2.4985121  45.0885503  47.4791126   2.5140256  45.9384926
  48.5206525   2.6948796  45.0652158  47.7683651   2.5299473  45.2108798
  42.0554842   5.0276103  43.0669319  41.9140334   4.1760044  43.1913827
  42.3395405   5.0704764  42.2431525  42.0762688   4.9075853  42.9636943
  52.2093434   6.8643193  37.2113808  51.9628148   6.7838944  38.0450597
  52.5378557   6.0796661  37.0176335  52.2214678   6.7369458  37.3061331
  56.1041483  13.5726552  41.0000589  55.9655842  14.2707598  41.5049331
  55.3241481  13.4175209  40.6436771  55.9684710  13.6526719  41.0226863
  54.4419568   9.8722928  47.2522971  54.4367607   9.0002744  47.2565397
  55.1480562  10.0711097  46.7792426  54.5464572   9.7726802  47.1830006
  48.1690461   9.5999912  46.6236791  48.3133837  10.1801120  45.9879901
  48.5166110   9.9776208  47.3286645  48.2417923   9.7420616  46.6335786
  50.3410379   8.7990080  44.4061922  49.5933693   8.9921095  44.0010200
  50.4951904   7.9735300  44.1686044  50.2532806   8.7055192  44.3107328
  57.5994856  12.9304806  31.7617088  57.2201665  12.1441944  31.7546377
  56.9361101  13.4791663  31.6188732  57.4453331  12.8949630  31.7397885
  50.5812156   2.6940631  45.2957326  51.0384770   3.4264605  45.4230118
  50.6568485   2.2707096  46.0544582  50.6603126   2.7397869  45.4258403
  42.8245147   2.9406451  46.3846770  42.2887336   2.3286809  46.7007537
  42.8862912   3.5154587  47.0380436  42.7540780   2.9353378  46.5282197
  48.4594534   4.6842735  42.1399150  47.6690608   4.5034195  42.4616486
  48.8555157   3.9069687  42.1229445  48.4011410   4.5430196  42.1851698
  52.9460424  13.5130509  27.5805864  53.7133410  13.5730634  27.1711716
  52.4991733  12.9410951  27.0962182  52.9933852  13.4367085  27.4483574
  53.8438220  12.3185165  39.8658596  53.1683222  12.0870397  40.3671983
  53.8530596  11.7106348  39.2400701  53.7456725  12.1944090  39.8474748
  50.9732364   7.1602994  46.6222649  50.9091505   8.0212950  46.4942786
  51.1129552   6.8434987  45.8218200  50.9847834   7.2403161  46.4850862
  55.8454955  15.1750297  32.0968774  55.9274792  15.9817283  31.7730225
  56.3304697  15.1946257  32.8209547  55.9292112  15.2970960  32.1555673
  49.6551458   9.8535133  40.7638852  49.2313707  10.0539632  40.0277870
  49.4796313   9.0063981  40.8763152  49.5662338   9.7583915  40.6712542
  44.9433903  10.3487185  36.1966824  45.0998522  10.2833987  37.0522817
  45.2834496  11.1235737  35.9845504  45.0167138  10.4536383  36.2921419
  51.4813047   9.7245068  35.0660188  52.0228593   9.2215449  35.5298808
  51.7959606   9.6710263  34.2549673  51.6077445   9.6424489  35.0144000
  55.3530155  13.9347716  52.1787100  56.1665020  13.6632864  52.3392232
  55.1925121  13.6355256  51.3747296  55.4500103  13.8502642  52.0832506
  52.6302317   4.6181373  45.1182488  52.8444286   3.9792287  44.5645842
  52.0136216   5.0627197  44.6890350  52.5707646   4.5891516  44.9732919
  41.5168164   7.5322135  36.5127592  41.8967129   7.9506680  35.8487859
  40.9423529   8.1135591  36.8196435  41.4879489   7.6799994  36.4604333
  54.7941405   6.2270438  46.0565795  53.9818087   5.9196328  46.1378968
  55.2531339   5.7469438  46.6208507  54.7421790   6.1106930  46.1520389
  54.2046660  14.1050110  36.5042740  53.8461314  14.2764753  37.2806772
  53.7185370  14.5663316  35.9470738  54.0805356  14.1989081  36.5368009
  48.9935025   9.7849275  29.0442974  49.2827550  10.5614158  29.3186548
  49.0806824   9.2738007  29.7457473  49.0489281   9.8241194  29.1885472
  51.8894912   7.6330509  50.8394498  52.3594544   8.2572626  51.2262372
  51.9356793   6.9647485  51.3987712  51.9662788   7.6265190  50.9794569
  55.3651399  14.9954006  47.4509940  56.0031119  14.5014202  47.1172396
  54.7225490  14.9231406  46.8662167  55.3645625  14.9113014  47.3152295
  57.0908399   6.8443152  42.0175856  56.6636007   6.7569500  41.2623956
  56.4534452   6.9520927  42.6030700  56.9338006   6.8475812  41.9921298
  55.4205655  15.6873814  44.0915297  56.2098034  15.3362879  44.2117379
  55.5949253  16.5010203  43.8291931  55.5625937  15.7559671  44.0703165
  45.1598966   9.0982540  41.1443086  44.3186972   8.9986414  41.3521980
  45.3688974   9.8678020  41.4957407  45.0663658   9.1974583  41.2270401
  42.6374533   6.7202077  38.9727837  42.2431231   6.7945089  38.1977946
  42.0814650   7.1060023  39.5236198  42.4977345   6.7883851  38.9395496
  48.9715631   7.0263939  40.3940684  48.6678768   6.4719927  40.9951091
  48.2695052   7.2056149  39.9068718  48.8231841   6.9708721  40.4110389
  48.0281728   4.3364459  34.9585385  48.3041462   3.6183371  34.5462953
  48.6280397   4.9349379  34.7506491  48.1574992   4.3184830  34.8666147
  45.0507774  11.4926302  42.5634719  44.4595707  12.1335800  42.5337734
  45.8128797  11.9163919  42.5366018  45.0756034  11.6502141  42.5549866
  45.4468397   2.6528300  43.2302737  45.9069878   2.7267229  43.9677860
  45.4924503   3.4509554  42.8802558  45.5218952   2.7822447  43.2875493
  47.0951746   3.3194995  47.7974764  46.7037311   2.6728342  48.2330541
  47.2637609   3.9106430  48.4169019  47.0622657   3.3109263  47.9537470
  61.1698195  11.3232072  43.5611997  61.2281319  11.7718721  44.3071974
  60.5364663  11.7330885  43.1242077  61.0849490  11.4505807  43.6064545
  54.8097290  16.9435614  39.9966743  54.6116979  17.4326428  39.3022955
  54.1885001  17.1476855  40.5750877  54.6884854  17.0452152  39.9789967
  48.8705268   8.7120511  34.3376988  49.6147313   9.0994787  34.5759938
  49.0165965   7.8677936  34.5017475  49.0015853   8.6450983  34.3970957
  51.8583144   4.2845984  40.2370907  51.3843098   3.7587746  40.7476218
  52.2301280   3.7375457  39.6685769  51.8433033   4.1261981  40.2286054
  42.2356174   6.2817491  45.6054453  43.0981787   6.1813200  45.5191783
  41.9047957   5.7012200  45.0440025  42.3141371   6.1809117  45.5099859
  58.1219875   9.3448360  41.6477688  57.8818098   8.5054775  41.6520114
  58.6011882   9.4248526  42.3718461  58.1572058   9.2329759  41.7552490
  53.7866644   5.1782538  33.2996661  53.2589662   5.2611282  32.6102370
  54.2462352   5.9200410  33.2961305  53.7768494   5.3003201  33.1971356
  60.1225062   6.1249817  39.6006947  59.8834832   6.0845651  38.7627731
  60.2858963   6.9720969  39.7272668  60.1115365   6.2441902  39.4960429
  45.5957960   5.1059940  42.2664871  44.9711030   5.1178332  41.6590824
  45.2603555   5.5820115  42.9156111  45.4543452   5.1778457  42.2721439
  45.7799709   3.4485058  28.3237556  45.4312513   4.1004783  28.7869105
  45.2996155   3.4342171  27.5961427  45.6569953   3.5428112  28.2848647
  42.3083636  13.1660400  43.7068635  41.7783560  12.4752839  43.7563610
  42.5808729  13.1570585  42.8781344  42.2708358  13.0627532  43.5916051
  53.3403726  13.7486102  32.4306318  54.0637925  14.2144215  32.2870891
  52.9004317  13.8159712  31.6803915  53.3819419  13.8269939  32.2991099
  52.5089881  10.6083644  43.6807007  51.8946875  10.0641695  43.9755642
  53.0257166  10.0947881  43.2012823  52.4945544  10.4520053  43.6531235
  51.7486179  11.6787914  41.4151305  51.3213787  11.0537633  40.9816741
  51.7411123  11.3962836  42.2410313  51.6845320  11.5440695  41.4731133
  44.8648706   6.7153087  44.4839739  45.0242192   5.9596412  44.8891461
  44.6841599   7.2644027  45.1380477  44.8614065   6.6846901  44.6402445
  50.0771888   2.5556669  41.6293839  50.1014375   2.0216781  40.9406619
  50.3283362   2.0473978  42.2919430  50.1181807   2.4017573  41.6258484
  37.5879478   9.8388164  41.0636984  37.4822927   9.7935008  40.1989068
  36.8379698  10.1841944  41.3451268  37.4615081   9.8829072  40.9774313
  46.3573210   1.2827487  41.0099584  46.3971582   1.7836694  41.7234291
  45.5322875   1.3737881  40.7405507  46.2412736   1.3709303  41.0750122
  48.5402823  10.8488227  49.1119878  47.6898454  10.9859941  49.2477523
  48.7030951  10.1152005  49.5567580  48.4386687  10.7602328  49.1975478
  47.7787574   7.7987997  43.3073483  46.9479504   7.9661815  43.1008731
  47.7239091   7.4223948  44.0922368  47.6476989   7.7677728  43.3922011
  45.5871357   1.2896890  48.9429893  46.2124061   0.7459023  49.2159326
  45.1321837   0.8091807  48.3737684  45.6119618   1.1386371  48.8991487
  46.1523618   6.0743589  33.8363600  46.2926579   6.5716053  34.5392242
  46.6506151   5.3729883  33.9777814  46.2464699   6.0445567  33.9615179
  46.1823840   6.9410700  31.1656177  46.8168920   7.5371125  31.1005639
  46.2649451   6.6414157  31.9802047  46.2880391   6.9851608  31.2759264
  59.1606406   9.4726177  44.0342541  59.7524246  10.1123428  44.0660740
  59.5965400   8.7749214  44.3234608  59.3124837   9.4644527  44.0823374
  47.7602823   2.8724675  31.1401619  48.0818664   2.3927757  30.4860882
  48.0229767   3.6824321  30.9492431  47.8468848   2.9214573  31.0157111
  50.9899796  13.8943549  44.6600435  50.4824887  14.4479396  45.1041066
  50.6926442  13.9551839  43.8419210  50.8704681  13.9849860  44.6048892
  42.6876828   9.1378540  34.4345723  43.1969057   9.7343048  34.8157029
  43.1611100   8.8704514  33.7522143  42.8320204   9.1864356  34.3900246
  53.6007576  17.8106807  32.5904379  52.8836886  17.6367669  32.1251616
  54.2514314  17.5759379  32.0579865  53.5909427  17.7502599  32.4433597
  56.1855547   6.6871396  36.3345684  55.5146737   7.2301098  36.2058750
  56.8795298   7.1566251  36.0927379  56.1884415   6.8369667  36.2801212
  45.0467360   5.7734799  37.3018904  44.3279349   6.1898931  37.5691767
  45.4179722   6.3389038  36.7510542  44.9959291   5.9184080  37.2601711
  54.3466941   6.4062648  43.1920899  54.3264868   6.2245943  44.0455678
  54.3946141   7.2774666  43.1680483  54.3501582   6.5079186  43.3144194
  52.2913270  12.9949840  49.1169376  52.2509125  12.3499517  48.5314532
  53.1036589  12.9386457  49.4294788  52.4056424  12.8908807  49.0766325
  52.2486032  18.2058651  39.7718143  51.8502315  18.3160921  39.0038964
  51.6337252  18.4140717  40.3544703  52.0984921  18.2532219  39.7449443
  50.8213934   4.8132799  32.6392283  50.2278773   5.1349795  32.0876850
  50.8589212   3.9673894  32.4313389  50.7388323   4.7357127  32.5275054
  53.6971751   4.7712303  36.0694033  53.4685444   4.7945005  35.2272392
  53.9569827   3.9469770  36.1889044  53.7017939   4.6528383  35.9619231
  47.9790979   6.6246776  45.6719134  47.4669882   6.0167959  46.0304165
  47.8070475   7.3403369  46.1393109  47.8780616   6.6410076  45.7935357
  42.8256694   5.0684352  48.3221495  42.6559284   5.7285726  47.7769702
  42.3822644   5.2790913  49.0433985  42.7356027   5.1970334  48.3483125
  46.7516513   3.3088850  37.3648229  47.2273879   3.6705929  36.7298410
  46.2505113   3.9645317  37.6448372  46.7481872   3.4583038  37.3124970
  59.9827875  12.7810618  33.1561234  60.3661481  13.5301974  33.3859331
  59.1871988  13.0276437  32.8973223  59.9221657  12.9280311  33.1518808
  51.8560049   4.5471021  48.1121389  52.4131480   4.3184830  47.4799855
  51.5321114   5.3076687  47.8356602  51.8906460   4.6254858  47.9777886
  39.7258758   7.9731217  43.5809985  39.1785478   7.3031863  43.6990854
  40.5151136   7.6061065  43.6453453  39.7610942   7.8196204  43.6078686
  49.5743167   7.6338674  49.0773396  50.3254494   7.9490351  49.3912950
  49.7665743   7.4317845  48.2507318  49.7134581   7.6506056  49.0016792
  48.7943166   5.4530049  30.7321613  49.1742131   5.4709679  29.9472728
  48.0535762   5.8984038  30.6112460  48.7412004   5.5211824  30.5985181
  38.4845728   7.1852025  40.7356008  38.3067489   6.7328634  41.4610924
  38.1964750   7.9878186  40.9194486  38.4158681   7.2374583  40.8699511
  54.1469309   8.4409742  39.9733399  54.6422974   7.7232737  39.9337419
  53.3369085   8.1380540  39.8587886  54.1013202   8.2907389  39.9507124
  49.5927920  12.2907556  32.1230403  48.7839243  11.9674229  32.0763713
  50.1002829  11.5840778  32.0558652  49.5477587  12.1388872  32.1060697
  40.2218198   9.7179749  37.8477767  39.3563717   9.7065439  37.7360539
  40.3217014   9.5309972  38.6948907  40.1092365   9.6885810  37.9566712
  56.2121128  11.1913430  42.6610527  56.6376199  10.6687852  42.1080952
  55.8478048  11.7894267  42.1399150  56.2207730  11.2023657  42.5019537
  52.7999727  14.9047694  38.9911685  53.2710905  15.6187957  39.1601670
  53.1359906  14.3046444  39.5271554  52.9194842  14.9219158  39.0944061
  54.8876712  16.5149007  51.1703757  54.9973677  15.7257568  51.5260504
  55.2167608  16.4254944  50.3678095  54.9529118  16.3854860  51.1046148
  53.4373674  14.6965628  45.7539377  52.8894620  14.0723512  45.4859443
  53.8986702  14.8859900  45.0383457  53.4240883  14.6324678  45.6089809
  48.7862337   1.6791578  33.4149245  49.6078031   1.8489890  33.1730939
  48.3231988   1.8338838  32.6915542  48.8393499   1.7273310  33.2720889
  43.1888228  13.4350756  41.0686481  43.7933085  13.3946590  40.4400302
  42.9815540  14.2821908  41.0990537  43.2477125  13.5538758  40.9802598
  53.0032000  15.7016701  42.2848719  53.8230374  15.5579667  42.5465014
  52.7226077  16.3262900  42.8265157  53.0828743  15.7727053  42.4036658
  38.4239510  12.4185373  40.9385404  38.3263788  11.6081645  41.2475461
  39.2068380  12.3977167  40.5531673  38.5255646  12.2952463  40.9272267
  69.4745650  23.3581553  35.2491595  69.4439655  24.2126189  35.4209864
  70.0726999  23.0576845  35.8077739  69.5582808  23.4398049  35.3566397
  62.6745335  22.4457204  40.0044525  61.8183231  22.6065702  40.0553642
  62.7212989  21.5749268  40.0249587  62.5544447  22.3408006  40.0150591
  65.9839052  28.7143729  49.6104982  66.6905819  28.2195760  49.7391916
  66.1726987  29.1552811  48.8807640  66.1166957  28.7062080  49.5214027
  62.5111435  32.4045291  31.1967304  62.1762803  33.0822213  30.7611526
  63.0238305  32.0150602  30.6084176  62.5377016  32.4469869  31.0454096
  62.0515726  34.3559560  37.1378416  62.4355105  34.9246458  36.5983191
  61.9874867  33.6309070  36.6584232  62.0989153  34.3335023  36.9872278
  65.5197156  24.5049248  42.6476177  66.0653116  25.1834334  42.7070147
  65.4614032  24.3636708  41.7877759  65.5913070  24.5841249  42.5288238
  58.6371231  31.9938314  38.0344530  58.7381594  31.1838668  38.3441657
  58.0412976  31.8995260  37.4044208  58.5643770  31.8603342  37.9870768
  67.2962225  25.9333855  33.5209905  67.1801751  26.6841541  33.9502043
  68.0918111  25.6757808  33.7705992  67.3966814  26.0068702  33.6213997
  54.1326363  20.1844331  40.5581171  53.5131394  19.5936978  40.3891186
  54.0310226  20.7755766  39.9245494  54.0264038  20.1848413  40.4386160
  59.1792550  29.9227878  34.8079247  59.5008391  30.4633085  34.2040555
  59.8264647  29.3524649  34.9401537  59.3218605  29.9187053  34.7386283
  61.2294258  21.9243873  34.8913634  61.9274423  22.1032000  35.3835097
  61.5446591  21.4014212  34.2684023  61.3789596  21.8737645  34.8715644
  53.8595496  23.7296613  42.8024740  53.7354193  24.3159058  43.4374559
  54.5113780  23.2356808  43.1037015  53.9369145  23.7435417  42.9410669
  61.4182194  28.3114318  34.8793425  61.8575829  27.7031418  35.3248198
  61.2686857  27.9321691  34.1078890  61.4603659  28.1652789  34.8312593
  58.8853837  26.9058330  42.0812251  59.5302839  26.4130773  41.7623199
  59.1255614  27.0483116  42.9078329  59.0164422  26.8535772  42.1561784
  61.4239928  29.7513235  41.7319144  61.7063171  28.9564641  41.5105899
  62.1526088  30.2293823  41.7524205  61.5729492  29.7047832  41.7022159
  59.4021122  17.2936269  38.9734909  59.0724452  17.7447413  38.3038607
  58.7266124  17.2152433  39.5207915  59.2531558  17.3487404  38.9558132
  66.6097530  13.2821792  37.2184519  66.2950971  13.9725271  37.6504942
  66.0924471  13.2266574  36.5170020  66.4862000  13.3756681  37.1781468
  65.9509963  23.2826293  33.3321930  65.4221435  23.4985927  33.9919236
  66.4734983  23.9762432  33.2522899  65.9498416  23.4169430  33.4177529
  71.4058016  28.8572598  38.7054974  70.5755720  29.0683241  38.8688391
  71.3567269  28.0309652  38.4297258  71.2764752  28.7662204  38.6892340
  57.8409571  27.1789510  32.1329398  57.2566787  27.6839541  32.5395262
  57.4379666  26.9531897  31.3925990  57.6948875  27.2197758  32.0834423
  59.4667754  31.6876452  41.5402884  58.9494696  31.3283867  40.9364192
  60.1642145  31.1638626  41.5508950  59.4933335  31.5574140  41.4533143
  63.1231346  32.1371266  47.5019057  63.2114692  31.9497406  48.3497267
  63.5521058  31.4908695  47.1023904  63.1993448  32.0134273  47.5690808
  60.6901806  31.4202426  46.4836719  60.1272641  31.0075036  47.0076380
  61.4522829  31.3455331  46.9029862  60.7196254  31.3479826  46.6229719
  62.2986786  23.4255162  30.6098318  62.5382789  23.6333146  29.7973662
  62.6202627  22.6212671  30.7187263  62.3823944  23.3369263  30.5058871
  57.6077076  15.3548558  34.4557856  58.3623044  15.7226875  34.2174907
  57.4304611  15.7288112  35.2237036  57.6931554  15.4646746  34.5342745
  70.9011975  21.5042998  42.5005396  70.0640396  21.5745185  42.7352990
  70.8700206  21.5067493  41.6279698  70.7730257  21.5153225  42.4064944
  57.2976704  23.6476034  48.2153764  57.4697207  23.5381928  49.0639046
  57.8346061  24.2930439  47.9784957  57.4021708  23.7268036  48.3058861
  55.9634141  17.7618877  31.1535969  55.7809714  17.9790758  30.3276962
  56.8259754  17.8757889  31.2094584  56.0638730  17.8108775  31.0390456
  56.2001276  30.0207674  42.8972263  56.7399501  29.8778805  43.5675635
  55.5171222  30.4204425  43.2656289  56.1793430  30.0587345  43.0506684
  61.6433860  14.7645287  34.1884993  62.3720020  14.5861242  33.7423149
  61.7328753  15.6063367  34.3992171  61.7640522  14.8629166  34.1538511
  65.6242161  25.6998675  38.0917287  66.3799676  26.1330189  38.1306196
  65.7304485  25.0503444  38.6651923  65.7512331  25.6676159  38.1815313
  68.6622332  29.5271952  38.8419690  68.2257563  29.5308694  39.5978662
  68.3285247  30.2077451  38.4099268  68.5484952  29.6284408  38.8900523
  63.2351405  31.5680285  50.1662840  64.0191822  31.6811133  50.5318583
  63.0348000  30.7421422  50.3621526  63.3217431  31.4627004  50.2497226
  51.6038421  26.2407965  43.0506684  51.3376836  25.4247082  43.2097675
  51.6176985  26.2861120  42.1802200  51.5663143  26.1264870  42.9460166
  68.5819815  16.5685780  41.0849118  69.2245723  16.6383884  41.6711033
  68.8342835  15.9015003  40.5828660  68.7141947  16.4812128  41.0976397
  55.5096168  21.0393049  29.6658442  54.7954345  20.7531229  30.0780875
  55.9940136  21.3789675  30.3064830  55.4755531  21.0474699  29.8214077
  56.3537027  19.7786343  45.6973692  55.6608824  19.3083323  45.9434424
  56.9697354  19.5524648  46.2715399  56.3421557  19.6753475  45.8182845
  63.3921799  33.4790387  43.8129296  62.5937044  33.2389887  44.0703165
  63.8407810  33.5304780  44.5596344  63.3396410  33.4512778  43.9614220
  71.7966678  26.2452872  37.7339327  72.4583112  25.6843540  37.6335236
  71.1558090  25.7504903  38.0592019  71.7995545  26.0889281  37.7671668
  62.6843486  29.5423003  30.0420251  63.0994634  29.2108027  29.3504746
  61.8535415  29.3091906  29.9140387  62.6231494  29.4594259  29.9211098
  68.0831509  27.2618254  37.4751316  68.3187098  27.4063453  36.6478167
  68.2321072  28.0260662  37.8682830  68.1397312  27.3957309  37.4114920
  55.0777586  23.7451747  46.8400537  55.8017558  23.7304778  47.3265432
  55.1793723  24.4547102  46.3422505  55.1995795  23.8476450  46.8379324
  69.9121965  26.1019920  35.3120920  70.2430182  26.6347560  34.7061015
  70.4855053  26.1558808  35.9682871  70.0455644  26.1889489  35.3198702
  62.4522535  27.2250832  51.7049484  61.6595516  27.5394344  51.8902104
  62.5671463  27.4402300  50.8670269  62.3517946  27.3034668  51.6087819
  65.1253854  23.9484823  35.9944500  65.2200709  24.6874117  36.4484126
  64.5012698  23.5202298  36.4279065  65.0462885  23.9946144  36.1252648
  63.3806328  27.1271036  46.6434781  63.9545190  26.4898280  46.7983345
  63.3021132  27.1275118  45.7744439  63.4539563  27.0336147  46.5381192
  65.3776876  25.7933563  29.2281452  65.2957038  25.8635750  30.0936439
  66.0156596  26.3563307  29.0365193  65.4596713  25.8872534  29.3271402
  58.7370047  25.5594301  38.6955978  58.4789291  24.7266036  38.6687278
  58.7918530  25.7851914  37.8548479  58.7069825  25.4692072  38.5676115
  63.8171097  17.6622751  38.7960071  63.1127424  17.1731937  38.9543990
  63.8656071  17.6745226  37.9248515  63.7201149  17.5912399  38.6899411
  57.7104759  23.1132063  39.1820873  57.1354350  23.2724232  39.8184834
  57.3340435  22.4767472  38.7189324  57.5707571  23.0429876  39.2075432
  61.3778048  21.5855412  44.0413252  60.9892480  21.1609630  43.3865443
  60.7132746  21.8337562  44.5490278  61.2224975  21.5594134  44.0201120
  71.0201317  21.3430417  36.8161082  70.7637882  20.5310359  36.6258964
  71.8630631  21.3507984  36.5891269  71.1067342  21.2242415  36.7545899
  65.2004409  15.2830041  41.5537236  65.5814921  14.6008212  41.9405110
  64.3967693  14.9939643  41.3712900  65.1380871  15.1397090  41.5841292
  62.4816986  25.8154017  32.2390059  63.2957625  26.1068910  32.1272830
  62.4176127  25.1613879  31.6648351  62.5919725  25.7619212  32.1378896
  68.7026476  28.4980013  46.6519634  68.4665113  27.6668078  46.5331695
  69.3469705  28.4465620  47.2374478  68.7621147  28.3677701  46.7205528
  58.3524894  29.2875534  37.3662371  58.9898841  29.0487282  37.9114164
  58.7779966  29.4912693  36.6315531  58.5101060  29.2826545  37.3379528
  58.9927709  24.5077824  31.7037260  59.3772862  24.2885531  32.4553805
  58.7439330  25.3340770  31.8338336  59.0129782  24.5975970  31.8338336
  59.1596250  17.7884239  51.4199844  58.8449691  18.5583802  51.1569407
  58.8386182  17.2254495  50.8352071  59.0655169  17.8194508  51.2941194
  69.7262897  28.2824462  42.7147929  69.4208714  29.0152519  43.0761244
  69.0069112  27.8762391  42.4340715  69.5750239  28.3306195  42.7261066
  60.7346366  29.7647957  39.0456157  60.8085374  29.6023129  39.8998007
  61.5515872  29.9538147  38.8016639  60.8662725  29.7684699  39.1354182
  75.4264689  24.9217463  42.0416273  75.3589189  24.9413422  41.1718859
  75.4120351  25.7647790  42.2671943  75.4143445  25.0491197  41.9468750
  56.7128147  16.1774761  37.0346041  55.8450572  16.2497360  37.1003650
  57.0003351  16.9796840  37.2234016  56.6267895  16.3068908  37.0720807
  65.8361035  16.3252620  45.3657362  66.5814627  16.1362431  44.9520788
  65.4198340  16.8510858  44.8071219  65.8846010  16.3754766  45.2221936
  59.2750952  32.7282700  33.7769630  59.5649250  32.3371681  33.0528857
  60.0054433  32.9099405  34.2174906  59.4257836  32.6976514  33.7352437
  73.2123306  23.6961849  40.3162867  73.7631228  23.0629918  40.5559959
  73.1967422  24.2277242  41.0078372  73.2908503  23.6810797  40.4541726
  59.8645697  27.5300446  44.8622761  59.3657391  28.2416214  44.9407649
  60.6745921  27.8501113  44.8240923  59.9101804  27.6827295  44.8679329
  56.1273815  26.7923399  39.1085482  55.8387063  26.1660870  39.6431209
  56.9957163  26.7343686  39.1750162  56.2134067  26.6910943  39.1976436
  66.9151712  21.9358182  39.4267464  66.5716478  21.2148518  39.7774713
  67.0144755  21.7272034  38.5845822  66.8793755  21.7982386  39.3539144
  59.3824823  36.0779472  35.6260472  60.0348881  35.5455915  35.8551498
  58.6850432  35.7248125  36.0128346  59.3755541  35.9468995  35.7172640
  56.3306088  28.4318650  35.0327847  57.0852056  28.8131689  35.2463309
  55.7376701  28.8829794  35.4874543  56.3542802  28.5547477  35.1310725
  67.3764741  28.3983887  34.9691452  67.9422774  29.0577096  34.8849995
  66.7292645  28.7433585  35.4407854  67.3643498  28.5465828  35.0264208
  58.7912755  20.3881490  50.1585059  57.9812531  20.6939270  50.0474901
  59.2687442  21.1087073  50.2737643  58.7416234  20.5396092  50.1592130
  57.6504315  29.6027211  40.4067962  57.1285068  29.7427503  41.0919827
  58.0378335  28.8437876  40.5970079  57.6308016  29.5112735  40.5369039
  54.6395499  19.6533020  34.4762917  54.3520294  19.2834291  33.7394864
  55.3265967  20.1227876  34.2146622  54.6984396  19.6679990  34.3277993
  63.8471320  31.3422671  34.3928531  63.6057995  30.6090531  33.9855596
  64.0272652  31.8909528  33.7394864  63.8378944  31.3145062  34.2358754
  59.0770640  26.6331231  35.8049453  58.8813423  27.2405965  35.2109756
  59.3004986  25.9399174  35.3241127  59.0805281  26.6208756  35.6465534
  57.4749170  23.5185968  35.9230322  58.1971822  23.6827127  35.4634127
  56.9957163  24.2395633  35.8169661  57.5112901  23.6484198  35.8395935
  65.4342678  19.8549767  41.3027006  64.5953778  19.8811046  41.0665270
  65.5047045  20.5020503  41.8832353  65.3211071  19.9545893  41.3536123
  55.1256787  25.9244041  45.0284461  55.6377884  26.2028294  44.3793221
  54.8393130  26.6633335  45.3947274  55.1591650  26.0746395  44.9874339
  63.8811956  16.7535144  36.0354622  64.5838309  16.5542893  35.5574581
  63.6156145  15.9811087  36.3423466  63.9458588  16.6098110  36.0100064
  69.3100202  25.0617754  38.5888248  69.2234176  25.2173180  39.4423027
  68.8550682  25.7055830  38.2147653  69.2303458  25.1793509  38.6595355
  52.2123693  20.4314233  35.3248198  52.3139830  21.2340394  35.6529173
  53.0079580  20.2301569  35.0271278  52.3451599  20.5200131  35.3283553
  58.6440512  18.0170429  45.0885503  58.4523709  18.0325564  45.9384926
  59.4939108  18.2134104  45.0652158  58.7416234  18.0484781  45.2108798
  53.0287425  20.5461411  43.0669319  52.8872917  19.6945352  43.1913827
  53.3127989  20.5890072  42.2431525  53.0495271  20.4261161  42.9636943
  63.1826018  22.3828501  37.2113808  62.9360732  22.3024252  38.0450597
  63.5111141  21.5981969  37.0176335  63.1947261  22.2554766  37.3061331
  67.0774067  29.0911860  41.0000589  66.9388426  29.7892906  41.5049331
  66.2974064  28.9360517  40.6436771  66.9417293  29.1712027  41.0226863
  65.4152152  25.3908236  47.2522971  65.4100190  24.5188052  47.2565397
  66.1213146  25.5896405  46.7792426  65.5197156  25.2912110  47.1830006
  59.1423045  25.1185220  46.6236791  59.2866421  25.6986428  45.9879901
  59.4898694  25.4961516  47.3286645  59.2150506  25.2605924  46.6335786
  61.3142962  24.3175388  44.4061922  60.5666276  24.5106402  44.0010200
  61.4684488  23.4920608  44.1686044  61.2265390  24.2240499  44.3107328
  58.2150800  33.3087991  43.4897818  58.3640364  32.7490907  42.8371222
  58.9950802  33.3879993  43.8730336  58.3524894  33.2373557  43.4494767
  68.5727439  28.4490114  31.7617088  68.1934248  27.6627252  31.7546377
  67.9093685  28.9976971  31.6188732  68.4185914  28.4134938  31.7397885
  60.7404101  33.4802634  44.7682308  60.6647772  32.8111445  45.3233097
  60.6693960  34.1820423  45.2822975  60.7184707  33.4847542  44.9259157
  61.5544739  18.2125939  45.2957326  62.0117353  18.9449913  45.4230118
  61.6301068  17.7892404  46.0544582  61.6335709  18.2583177  45.4258403
  53.7977731  18.4591758  46.3846770  53.2619920  17.8472117  46.7007537
  53.8595495  19.0339894  47.0380436  53.7273363  18.4538686  46.5282197
  66.0272065  11.3915814  39.1651169  66.1455633  11.8492277  38.4318472
  65.8534241  10.5861075  38.8787387  66.0191236  11.3409586  39.0152103
  61.3974348  32.0003633  35.6005914  62.1624239  31.7313277  35.2788579
  61.2952437  31.5153644  36.3175977  61.4955843  31.8893198  35.6585742
  59.4327117  20.2028043  42.1399150  58.6423192  20.0219503  42.4616486
  59.8287740  19.4254995  42.1229445  59.3743993  20.0615504  42.1851698
  63.9193008  29.0315817  27.5805864  64.6865993  29.0915942  27.1711716
  63.4724317  28.4596258  27.0962182  63.9666435  28.9552393  27.4483574
  64.8170804  27.8370473  39.8658596  64.1415805  27.6055705  40.3671983
  64.8263180  27.2291656  39.2400701  64.7189308  27.7129398  39.8474748
  61.9464948  22.6788302  46.6222649  61.8824089  23.5398258  46.4942786
  62.0862135  22.3620295  45.8218200  61.9580418  22.7588468  46.4850862
  66.8187538  30.6935605  32.0968774  66.9007376  31.5002591  31.7730225
  67.3037280  30.7131564  32.8209547  66.9024696  30.8156268  32.1555673
  60.6284041  25.3720441  40.7638852  60.2046291  25.5724940  40.0277870
  60.4528897  24.5249289  40.8763152  60.5394922  25.2769223  40.6712542
  55.9166486  25.8672493  36.1966824  56.0731106  25.8019295  37.0522817
  56.2567080  26.6421045  35.9845504  55.9899721  25.9721691  36.2921419
  62.4545631  25.2430376  35.0660188  62.9961176  24.7400757  35.5298808
  62.7692190  25.1895571  34.2549673  62.5810028  25.1609797  35.0144000
  66.3262738  29.4533024  52.1787100  67.1397604  29.1818172  52.3392232
  66.1657705  29.1540563  51.3747296  66.4232687  29.3687950  52.0832506
  60.6232081  30.6347728  32.3500216  60.6924901  29.7762266  32.4893216
  61.4020536  30.8519609  32.0219240  60.7484931  30.5400592  32.3217373
  63.6034900  20.1366681  45.1182488  63.8176870  19.4977595  44.5645842
  62.9868800  20.5812505  44.6890350  63.5440230  20.1076824  44.9732919
  65.0139568  33.0585429  36.5636709  64.6219360  32.7552144  35.8459575
  65.1692641  33.8954519  36.3741663  64.9793158  33.1369266  36.4293206
  52.4900748  23.0507443  36.5127592  52.8699713  23.4691988  35.8487859
  51.9156113  23.6320899  36.8196435  52.4612073  23.1985302  36.4604333
  65.7673988  21.7455746  46.0565795  64.9550670  21.4381636  46.1378968
  66.2263923  21.2654746  46.6208507  65.7154373  21.6292238  46.1520389
  65.1779243  29.6235418  36.5042740  64.8193898  29.7950061  37.2806772
  64.6917954  30.0848623  35.9470738  65.0537940  29.7174389  36.5368009
  62.9949629  13.2466616  40.1069831  62.1243187  13.2205337  40.0603140
  63.2489970  13.0743809  39.2895677  62.9043189  13.2176760  39.9789968
  59.9667608  25.3034583  29.0442974  60.2560133  26.0799466  29.3186548
  60.0539407  24.7923315  29.7457473  60.0221865  25.3426502  29.1885472
  62.8627496  23.1515817  50.8394498  63.3327127  23.7757934  51.2262372
  62.9089376  22.4832793  51.3987712  62.9395372  23.1450498  50.9794569
  60.0198770  15.2572845  41.5643301  59.5037258  14.5653036  41.6894880
  59.4592698  15.9243622  41.5105900  59.8605283  15.2536102  41.5749367
  62.0891003  15.7965805  43.3936154  61.7022756  15.8214836  44.1749684
  61.6023940  15.2307483  42.9410670  61.9603512  15.7161556  43.4424058
  66.3383982  30.5139314  47.4509940  66.9763703  30.0199509  47.1172396
  65.6958074  30.4416714  46.8662167  66.3378209  30.4298322  47.3152295
  68.0640983  22.3628460  42.0175856  67.6368591  22.2754808  41.2623956
  67.4267035  22.4706235  42.6030700  67.9070590  22.3661120  41.9921298
  61.7548145  12.6832790  45.6846414  62.3841263  13.2193090  45.4067484
  61.9234007  12.5910149  46.5359979  61.8725939  12.7494153  45.7694942
  61.5562060  17.4703985  47.9572825  62.3835489  17.1989134  48.0131440
  61.5769906  18.2664827  48.3136644  61.6814910  17.5483739  48.0188008
  66.3938239  31.2059122  44.0915297  67.1830617  30.8548187  44.2117379
  66.5681837  32.0195510  43.8291931  66.5358521  31.2744979  44.0703165
  56.1331549  24.6167848  41.1443086  55.2919556  24.5171722  41.3521980
  56.3421557  25.3863328  41.4957407  56.0396242  24.7159891  41.2270401
  53.6107116  22.2387385  38.9727837  53.2163814  22.3130397  38.1977946
  53.0547233  22.6245331  39.5236198  53.4709929  22.3069159  38.9395496
  65.2472063  15.2168679  38.6531716  65.4521657  15.1490987  39.4988713
  64.9198487  16.0227500  38.5852893  65.2287311  15.3254619  38.7691371
  59.9448214  22.5449247  40.3940684  59.6411352  21.9905235  40.9951091
  59.2427635  22.7241457  39.9068718  59.7964424  22.4894029  40.4110389
  59.0014311  19.8549767  34.9585385  59.2774046  19.1368679  34.5462953
  59.6012981  20.4534687  34.7506491  59.1307576  19.8370138  34.8666147
  58.0066565  29.7598968  45.1012781  57.8986920  29.7701030  45.9674839
  58.2162347  30.5853748  44.9117735  58.0216676  29.8840043  45.2016873
  68.5005751  15.7700443  38.1334481  67.8880065  16.2570845  38.5188213
  68.5969926  15.0943934  38.6772132  68.4243649  15.7418752  38.2713339
  62.5024832  17.5263284  33.2331980  62.9568578  17.6973845  33.9579825
  62.9764878  16.9131395  32.8329756  62.6393152  17.4614169  33.2805742
  56.0240357  27.0111610  42.5634719  55.4328291  27.6521108  42.5337734
  56.7861381  27.4349227  42.5366018  56.0488618  27.1687449  42.5549866
  56.4200980  18.1713608  43.2302737  56.8802462  18.2452537  43.9677860
  56.4657087  18.9694862  42.8802558  56.4951535  18.3007755  43.2875493
  58.0684330  18.8380303  47.7974764  57.6769895  18.1913650  48.2330541
  58.2370193  19.4291738  48.4169019  58.0355240  18.8294571  47.9537470
  72.1430779  26.8417380  43.5611997  72.2013903  27.2904029  44.3071974
  71.5097246  27.2516193  43.1242077  72.0582074  26.9691114  43.6064545
  65.7829874  32.4620922  39.9966743  65.5849562  32.9511736  39.3022955
  65.1617585  32.6662163  40.5750877  65.6617438  32.5637460  39.9789967
  59.8437852  24.2305819  34.3376988  60.5879897  24.6180095  34.5759938
  59.9898548  23.3863244  34.5017475  59.9748437  24.1636291  34.3970957
  61.7617427  16.0256077  39.3708849  60.9153472  16.1978885  39.2450199
  61.7588560  15.2205421  39.7074677  61.6364577  15.9317106  39.4019976
  62.8315728  19.8031292  40.2370907  62.3575682  19.2773054  40.7476218
  63.2033864  19.2560765  39.6685769  62.8165617  19.6447288  40.2286054
  53.2088758  21.8002799  45.6054453  54.0714371  21.6998508  45.5191783
  52.8780541  21.2197508  45.0440025  53.2873954  21.6994425  45.5099859
  69.0952458  24.8633668  41.6477688  68.8550681  24.0240083  41.6520114
  69.5744466  24.9433834  42.3718461  69.1304642  24.7515067  41.7552490
  64.7599227  20.6967846  33.2996661  64.2322246  20.7796590  32.6102370
  65.2194936  21.4385718  33.2961305  64.7501078  20.8188509  33.1971356
  71.0957645  21.6435125  39.6006947  70.8567415  21.6030959  38.7627731
  71.2591547  22.4906277  39.7272668  71.0847949  21.7627210  39.4960429
  67.7003675  26.0285074  45.5311992  68.4237874  25.5757600  45.3523012
  67.4353638  26.3089740  44.7484320  67.7684949  26.0036043  45.3890707
  56.5690544  20.6245248  42.2664871  55.9443614  20.6363640  41.6590824
  56.2336139  21.1005423  42.9156111  56.4276036  20.6963765  42.2721439
  56.7532293  18.9670366  28.3237556  56.4045097  19.6190091  28.7869105
  56.2728738  18.9527479  27.5961427  56.6302537  19.0613420  28.2848647
  53.2816219  28.6845708  43.7068635  52.7516144  27.9938147  43.7563610
  53.5541313  28.6755893  42.8781344  53.2440942  28.5812839  43.5916051
  64.3136310  29.2671410  32.4306318  65.0370509  29.7329523  32.2870891
  63.8736901  29.3345020  31.6803915  64.3552002  29.3455247  32.2991099
  62.7218762  27.1973222  41.4151305  62.2946370  26.5722941  40.9816741
  62.7143707  26.9148144  42.2410313  62.6577903  27.0626003  41.4731133
  55.8381289  22.2338395  44.4839739  55.9974776  21.4781719  44.8891461
  55.6574183  22.7829335  45.1380477  55.8346648  22.2032209  44.6402445
  63.7801592  14.3999631  45.0390529  63.2842154  14.5963305  44.3482096
  64.5370654  14.7992299  44.8679331  63.8188417  14.4877365  44.9110666
  61.0504472  18.0741977  41.6293839  61.0746959  17.5402089  40.9406619
  61.3015945  17.5659286  42.2919430  61.0914391  17.9202881  41.6258484
  57.3305794  16.8012795  41.0099584  57.3704166  17.3022002  41.7234291
  56.5055459  16.8923189  40.7405507  57.2145320  16.8894611  41.0750122
  59.5135407  26.3673535  49.1119878  58.6631037  26.5045249  49.2477523
  59.6763535  25.6337313  49.5567580  59.4119270  26.2787636  49.1975478
  58.7520157  23.3173305  43.3073483  57.9212087  23.4847123  43.1008731
  58.6971675  22.9409256  44.0922368  58.6209572  23.2863036  43.3922011
  56.5603941  16.8082198  48.9429893  57.1856644  16.2644331  49.2159326
  56.1054421  16.3277115  48.3737684  56.5852201  16.6571679  48.8991487
  57.1256201  21.5928896  33.8363600  57.2659162  22.0901361  34.5392242
  57.6238734  20.8915191  33.9777814  57.2197282  21.5630875  33.9615179
  57.1556424  22.4596007  31.1656177  57.7901503  23.0556432  31.1005639
  57.2382034  22.1599465  31.9802047  57.2612975  22.5036916  31.2759264
  70.1338989  24.9911485  44.0342541  70.7256830  25.6308736  44.0660740
  70.5697984  24.2934522  44.3234608  70.2857421  24.9829835  44.0823374
  58.7335407  18.3909983  31.1401619  59.0551248  17.9113065  30.4860882
  58.9962350  19.2009629  30.9492431  58.8201432  18.4399881  31.0157111
  61.9632379  29.4128857  44.6600435  61.4557470  29.9664704  45.1041066
  61.6659026  29.4737147  43.8419210  61.8437264  29.5035168  44.6048892
  64.1294562  17.7782177  43.5025098  64.5549633  17.3254703  42.8908625
  63.5151555  17.2242248  43.7789886  64.1023207  17.6296153  43.4530124
  53.6609412  24.6563848  34.4345723  54.1701641  25.2528356  34.8157029
  54.1343684  24.3889822  33.7522143  53.8052787  24.7049664  34.3900246
  64.5740160  33.3292115  32.5904379  63.8569469  33.1552977  32.1251616
  65.2246897  33.0944687  32.0579865  64.5642010  33.2687907  32.4433597
  62.5688784  14.2497277  36.9115675  61.9257102  14.0994923  37.4800814
  62.2288191  14.0039622  36.1464780  62.4233862  14.1909399  36.8818691
  67.1588131  22.2056703  36.3345684  66.4879321  22.7486406  36.2058750
  67.8527881  22.6751559  36.0927379  67.1616998  22.3554975  36.2801212
  61.2074865  34.3453415  41.5657442  60.9840519  33.5872245  41.9341469
  60.7184708  34.3751437  40.8437882  61.1018314  34.2375640  41.5134183
  67.3216258  18.6612587  39.2436057  67.6743868  18.2342310  39.9181856
  66.4631060  18.5763431  39.3737134  67.2465703  18.5857328  39.3631068
  56.0199943  21.2920107  37.3018904  55.3011932  21.7084239  37.5691767
  56.3912306  21.8574346  36.7510542  55.9691875  21.4369388  37.2601711
  65.3199524  21.9247956  43.1920899  65.2997451  21.7431251  44.0455678
  65.3678725  22.7959974  43.1680483  65.3234165  22.0264494  43.3144194
  63.2645854  28.5135148  49.1169376  63.2241709  27.8684825  48.5314532
  64.0769172  28.4571765  49.4294788  63.3789007  28.4094115  49.0766325
  59.8553322  34.5653874  39.0194527  59.4413720  33.9028004  38.6298369
  60.5400696  34.7131732  38.4990221  59.8951693  34.4894532  38.8851024
  63.2218616  33.7243959  39.7718143  62.8234899  33.8346229  39.0038964
  62.6069835  33.9326025  40.3544703  63.0717505  33.7717527  39.7449443
  61.7946518  20.3318107  32.6392283  61.2011357  20.6535103  32.0876850
  61.8321795  19.4859202  32.4313389  61.7120907  20.2542435  32.5275054
  68.7540318  13.7830999  40.1720370  68.2471183  13.0760138  40.1041547
  69.5507752  13.4524188  40.3021446  68.7967558  13.6304150  40.1819365
  64.6704334  20.2897611  36.0694033  64.4418027  20.3130313  35.2272392
  64.9302410  19.4655078  36.1889044  64.6750522  20.1713691  35.9619231
  58.9523563  22.1432084  45.6719134  58.4402466  21.5353267  46.0304165
  58.7803059  22.8588677  46.1393109  58.8513200  22.1595384  45.7935357
  53.7989277  20.5869660  48.3221495  53.6291868  21.2471034  47.7769702
  53.3555227  20.7976221  49.0433985  53.7088611  20.7155642  48.3483125
  57.7249097  18.8274157  37.3648229  58.2006463  19.1891237  36.7298410
  57.2237696  19.4830625  37.6448372  57.7214456  18.9768346  37.3124970
  70.9560458  28.2995926  33.1561234  71.3394064  29.0487282  33.3859331
  70.1604572  28.5461745  32.8973223  70.8954241  28.4465619  33.1518808
  62.8292633  20.0656329  48.1121389  63.3864063  19.8370138  47.4799855
  62.5053698  20.8261994  47.8356602  62.8639043  20.1440166  47.9777886
  60.5475750  23.1523982  49.0773396  61.2987077  23.4675659  49.3912950
  60.7398327  22.9503153  48.2507318  60.6867164  23.1691364  49.0016792
  59.7675750  20.9715357  30.7321613  60.1474715  20.9894986  29.9472728
  59.0268346  21.4169346  30.6112460  59.7144588  21.0397132  30.5985181
  67.3961040  19.2797548  36.3197192  67.3955267  19.1246205  37.1781468
  67.1917220  20.1260536  36.2638577  67.3660818  19.3818169  36.4385131
  65.1201892  23.9595050  39.9733399  65.6155558  23.2418045  39.9337419
  64.3101668  23.6565848  39.8587886  65.0745786  23.8092697  39.9507124
  60.5660504  27.8092864  32.1230403  59.7571827  27.4859537  32.0763713
  61.0735413  27.1026086  32.0558652  60.5210171  27.6574180  32.1060697
  67.1853711  26.7098738  42.6610527  67.6108783  26.1873160  42.1080952
  66.8210631  27.3079575  42.1399150  67.1940314  26.7208965  42.5019537
  63.7732311  30.4233002  38.9911685  64.2443489  31.1373265  39.1601670
  64.1092489  29.8231752  39.5271554  63.8927426  30.4404466  39.0944061
  65.8609295  32.0334315  51.1703757  65.9706261  31.2442876  51.5260504
  66.1900192  31.9440252  50.3678095  65.9261701  31.9040168  51.1046148
  60.6901806  15.1960473  45.9469780  60.8229711  14.3991466  46.2750755
  61.0746958  15.7226876  46.5268055  60.7658135  15.1560389  46.0813283
  64.4106257  30.2150936  45.7539377  63.8627203  29.5908820  45.4859443
  64.8719286  30.4045208  45.0383457  64.3973467  30.1509986  45.6089809
  63.7634161  12.1190799  42.5450873  62.9580125  12.0088528  42.8618711
  63.6340896  12.2203254  41.6880739  63.6254294  12.1174469  42.4658913
  67.2200121  18.2836291  43.1390570  66.6363110  18.7845497  42.7268137
  67.5404416  17.7765847  42.5054893  67.1813297  18.2828126  42.9849077
  59.7594921  17.1976885  33.4149245  60.5810615  17.3675198  33.1730939
  59.2964572  17.3524146  32.6915542  59.8126083  17.2458618  33.2720889
  58.3490253  15.1919648  44.1947673  58.8934665  14.8510774  44.7852015
  58.4027188  16.0505109  44.3368958  58.4379372  15.2674907  44.3029547
  54.1620811  28.9536064  41.0686481  54.7665669  28.9131898  40.4400302
  53.9548124  29.8007216  41.0990537  54.2209709  29.0724066  40.9802598
  63.9764583  31.2202009  42.2848719  64.7962957  31.0764975  42.5465014
  63.6958661  31.8448208  42.8265157  64.0561327  31.2912361  42.4036658
  73.6477919  37.9642512  40.0044525  72.7915814  38.1251010  40.0553642
  73.6945572  37.0934576  40.0249587  73.5277030  37.8593313  40.0150591
  68.0319058  47.5005229  35.7681757  67.2801958  47.1220768  35.5397802
  68.4805070  47.5323663  35.0200567  67.9868725  47.4490837  35.6239259
  76.9571635  44.2329037  49.6104982  77.6638402  43.7381068  49.7391916
  77.1459571  44.6738119  48.8807640  77.0899541  44.2247388  49.5214027
  73.4844018  47.9230599  31.1967304  73.1495387  48.6007521  30.7611526
  73.9970889  47.5335910  30.6084176  73.5109599  47.9655177  31.0454096
  73.0248310  49.8744868  37.1378416  73.4087689  50.4431766  36.5983191
  72.9607451  49.1494378  36.6584232  73.0721737  49.8520331  36.9872278
  76.4929740  40.0234556  42.6476177  77.0385700  40.7019642  42.7070147
  76.4346616  39.8822016  41.7877759  76.5645654  40.1026557  42.5288238
  69.6103815  47.5123622  38.0344530  69.7114177  46.7023976  38.3441657
  69.0145560  47.4180568  37.4044208  69.5376353  47.3788650  37.9870768
  69.4504554  52.4301211  39.4359386  70.0942010  52.8714375  39.8255544
  69.7760810  51.6254637  39.3489644  69.5936383  52.3766406  39.4804863
  65.1058946  35.7029639  40.5581171  64.4863978  35.1122286  40.3891186
  65.0042810  36.2941074  39.9245494  64.9996622  35.7033721  40.4386160
  70.1525134  45.4413186  34.8079247  70.4740975  45.9818393  34.2040555
  70.7997230  44.8709957  34.9401537  70.2951189  45.4372361  34.7386283
  72.2026842  37.4429181  34.8913634  72.9007007  37.6217308  35.3835097
  72.5179174  36.9199520  34.2684023  72.3522179  37.3922953  34.8715644
  72.3914777  43.8299626  34.8793425  72.8308413  43.2216726  35.3248198
  72.2419440  43.4506999  34.1078890  72.4336243  43.6838097  34.8312593
  69.8586420  42.4243637  42.0812251  70.5035423  41.9316081  41.7623199
  70.0988197  42.5668424  42.9078329  69.9897005  42.3721080  42.1561784
  72.3972512  45.2698543  41.7319144  72.6795754  44.4749949  41.5105899
  73.1258672  45.7479131  41.7524205  72.5462075  45.2233140  41.7022159
  70.3753705  32.8121577  38.9734909  70.0457036  33.2632721  38.3038607
  69.6998707  32.7337741  39.5207915  70.2264142  32.8672712  38.9558132
  75.9924114  42.1826807  31.8324195  75.9075409  43.0387774  31.9773764
  76.4808497  41.9071131  32.5006354  76.0513011  42.2684128  31.9526276
  77.5830113  28.8007100  37.2184519  77.2683554  29.4910579  37.6504942
  77.0657055  28.7451882  36.5170020  77.4594584  28.8941989  37.1781468
  76.9242547  38.8011601  33.3321930  76.3954019  39.0171235  33.9919236
  77.4467567  39.4947740  33.2522899  76.9231000  38.9354738  33.4177529
  68.8142155  42.6974818  32.1329398  68.2299370  43.2024849  32.5395262
  68.4112250  42.4717205  31.3925990  68.6681459  42.7383066  32.0834423
  64.3686183  48.4129579  38.9353069  63.8853762  49.1380069  38.9112653
  65.1809502  48.7105709  39.0463227  64.4176931  48.5631933  38.9480349
  70.4400338  47.2061760  41.5402884  69.9227279  46.8469175  40.9364192
  71.1374729  46.6823934  41.5508950  70.4665919  47.0759448  41.4533143
  74.0963930  47.6556574  47.5019057  74.1847275  47.4682714  48.3497267
  74.5253642  47.0094003  47.1023904  74.1726032  47.5319581  47.5690808
  71.6634389  46.9387734  46.4836719  71.1005224  46.5260344  47.0076380
  72.4255413  46.8640639  46.9029862  71.6928838  46.8665134  46.6229719
  73.2719369  38.9440470  30.6098318  73.5115373  39.1518454  29.7973662
  73.5935210  38.1397979  30.7187263  73.3556527  38.8554571  30.5058871
  68.5809660  30.8733866  34.4557856  69.3355628  31.2412183  34.2174907
  68.4037194  31.2473420  35.2237036  68.6664138  30.9832054  34.5342745
  67.2230381  48.9285755  39.0873349  67.9250960  48.4137744  39.1446106
  67.1427864  49.2559906  39.8920224  67.3154141  48.8999981  39.2146141
  68.2709287  39.1661342  48.2153764  68.4429791  39.0567236  49.0639046
  68.8078645  39.8115747  47.9784957  68.3754291  39.2453343  48.3058861
  66.9366724  33.2804185  31.1535969  66.7542297  33.4976065  30.3276962
  67.7992337  33.3943197  31.2094584  67.0371314  33.3294083  31.0390456
  67.1733859  45.5392982  42.8972263  67.7132084  45.3964113  43.5675635
  66.4903805  45.9389733  43.2656289  67.1526013  45.5772653  43.0506684
  72.6166443  30.2830595  34.1884993  73.3452604  30.1046550  33.7423149
  72.7061336  31.1248675  34.3992171  72.7373105  30.3814474  34.1538511
  76.5974744  41.2183983  38.0917287  77.3532259  41.6515497  38.1306196
  76.7037069  40.5688752  38.6651923  76.7244915  41.1861467  38.1815313
  74.2083989  47.0865593  50.1662840  74.9924405  47.1996441  50.5318583
  74.0080583  46.2606730  50.3621526  74.2950014  46.9812312  50.2497226
  66.4828751  36.5578357  29.6658442  65.7686928  36.2716537  30.0780875
  66.9672720  36.8974983  30.3064830  66.4488115  36.5660007  29.8214077
  67.3269611  35.2971651  45.6973692  66.6341407  34.8268631  45.9434424
  67.9429938  35.0709956  46.2715399  67.3154141  35.1938783  45.8182845
  74.3654382  48.9975695  43.8129296  73.5669628  48.7575195  44.0703165
  74.8140394  49.0490088  44.5596344  74.3128993  48.9698086  43.9614220
  73.6576069  45.0608311  30.0420251  74.0727218  44.7293335  29.3504746
  72.8267999  44.8277213  29.9140387  73.5964078  44.9779567  29.9211098
  66.0510170  39.2637055  46.8400537  66.7750142  39.2490086  47.3265432
  66.1526306  39.9732410  46.3422505  66.1728379  39.3661758  46.8379324
  73.4255119  42.7436140  51.7049484  72.6328100  43.0579652  51.8902104
  73.5404046  42.9587608  50.8670269  73.3250530  42.8219976  51.6087819
  76.0986438  39.4670131  35.9944500  76.1933292  40.2059425  36.4484126
  75.4745282  39.0387606  36.4279065  76.0195468  39.5131451  36.1252648
  74.3538912  42.6456343  46.6434781  74.9277773  42.0083588  46.7983345
  74.2753716  42.6460426  45.7744439  74.4272147  42.5521455  46.5381192
  76.3509459  41.3118871  29.2281452  76.2689622  41.3821058  30.0936439
  76.9889180  41.8748615  29.0365193  76.4329297  41.4057842  29.3271402
  69.7102630  41.0779609  38.6955978  69.4521875  40.2451343  38.6687278
  69.7651113  41.3037222  37.8548479  69.6802408  40.9877380  38.5676115
  74.7903681  33.1808059  38.7960071  74.0860007  32.6917245  38.9543990
  74.8388655  33.1930534  37.9248515  74.6933732  33.1097707  38.6899411
  68.6837343  38.6317371  39.1820873  68.1086934  38.7909539  39.8184834
  68.3073019  37.9952780  38.7189324  68.5440155  38.5615184  39.2075432
  72.3510631  37.1040720  44.0413252  71.9625064  36.6794938  43.3865443
  71.6865330  37.3522870  44.5490278  72.1957559  37.0779441  44.0201120
  76.1736993  30.8015349  41.5537236  76.5547505  30.1193520  41.9405110
  75.3700277  30.5124951  41.3712900  76.1113454  30.6582398  41.5841292
  73.4549569  41.3339325  32.2390059  74.2690208  41.6254218  32.1272830
  73.3908711  40.6799187  31.6648351  73.5652309  41.2804520  32.1378896
  69.3257478  44.8060842  37.3662371  69.9631425  44.5672590  37.9114164
  69.7512549  45.0098001  36.6315531  69.4833644  44.8011853  37.3379528
  69.9660293  40.0263132  31.7037260  70.3505445  39.8070839  32.4553805
  69.7171913  40.8526078  31.8338336  69.9862365  40.1161278  31.8338336
  70.1328833  33.3069547  51.4199844  69.8182274  34.0769110  51.1569407
  69.8118766  32.7439803  50.8352071  70.0387752  33.3379816  51.2941194
  71.7078950  45.2833265  39.0456157  71.7817958  45.1208437  39.8998007
  72.5248456  45.4723455  38.8016639  71.8395308  45.2870007  39.1354182
  67.6860730  31.6960069  37.0346041  66.8183156  31.7682668  37.1003650
  67.9735934  32.4982148  37.2234016  67.6000478  31.8254216  37.0720807
  76.8093619  31.8437928  45.3657362  77.5547211  31.6547739  44.9520788
  76.3930923  32.3696166  44.8071219  76.8578593  31.8940074  45.2221936
  70.2483535  48.2468008  33.7769630  70.5381834  47.8556989  33.0528857
  70.9787016  48.4284713  34.2174906  70.3990420  48.2161822  33.7352437
  70.8378281  43.0485754  44.8622761  70.3389974  43.7601522  44.9407649
  71.6478505  43.3686421  44.8240923  70.8834387  43.2012603  44.8679329
  68.1889451  50.2235390  36.8429780  67.9689746  49.9332745  37.6356447
  67.9683973  49.5650346  36.3147692  68.1237045  50.0835099  36.8818689
  77.8884296  37.4543490  39.4267464  77.5449062  36.7333826  39.7774713
  77.9877339  37.2457342  38.5845822  77.8526339  37.3167694  39.3539144
  70.3557407  51.5964780  35.6260472  71.0081465  51.0641223  35.8551498
  69.6583015  51.2433433  36.0128346  70.3488125  51.4654303  35.7172640
  69.7645339  35.9066798  50.1585059  68.9545114  36.2124578  50.0474901
  70.2420025  36.6272381  50.2737643  69.7148817  36.0581400  50.1592130
  68.6236898  45.1212519  40.4067962  68.1017652  45.2612811  41.0919827
  69.0110918  44.3623184  40.5970079  68.6040599  45.0298043  40.5369039
  65.6128082  35.1718328  34.4762917  65.3252878  34.8019599  33.7394864
  66.2998550  35.6413183  34.2146622  65.6716980  35.1865297  34.3277993
  74.8203903  46.8607979  34.3928531  74.5790579  46.1275839  33.9855596
  75.0005236  47.4094836  33.7394864  74.8111527  46.8330370  34.2358754
  70.0503224  42.1516538  35.8049453  69.8546006  42.7591273  35.2109756
  70.2737569  41.4584482  35.3241127  70.0537865  42.1394064  35.6465534
  68.4481754  39.0371276  35.9230322  69.1704406  39.2012434  35.4634127
  67.9689747  39.7580941  35.8169661  68.4845484  39.1669506  35.8395935
  76.4075261  35.3735075  41.3027006  75.5686362  35.3996354  41.0665270
  76.4779629  36.0205811  41.8832353  76.2943655  35.4731201  41.3536123
  66.0989370  41.4429349  45.0284461  66.6110467  41.7213602  44.3793221
  65.8125713  42.1818643  45.3947274  66.1324234  41.5931702  44.9874339
  74.8544540  32.2720452  36.0354622  75.5570892  32.0728200  35.5574581
  74.5888728  31.4996395  36.3423466  74.9191172  32.1283418  36.0100064
  63.1856277  35.9499541  35.3248198  63.2872413  36.7525702  35.6529173
  63.9812164  35.7486877  35.0271278  63.3184182  36.0385439  35.3283553
  69.6173096  33.5355737  45.0885503  69.4256293  33.5510872  45.9384926
  70.4671692  33.7319412  45.0652158  69.7148818  33.5670089  45.2108798
  64.0020009  36.0646719  43.0669319  63.8605501  35.2130659  43.1913827
  64.2860572  36.1075379  42.2431525  64.0227855  35.9446469  42.9636943
  74.1558601  37.9013809  37.2113808  73.9093316  37.8209560  38.0450597
  74.4843724  37.1167277  37.0176335  74.1679845  37.7740074  37.3061331
  78.0506650  44.6097168  41.0000589  77.9121009  45.3078214  41.5049331
  77.2706648  44.4545825  40.6436771  77.9149877  44.6897335  41.0226863
  76.3884735  40.9093544  47.2522971  76.3832774  40.0373360  47.2565397
  77.0945729  41.1081713  46.7792426  76.4929739  40.8097418  47.1830006
  70.1155629  40.6370528  46.6236791  70.2599004  41.2171736  45.9879901
  70.4631277  41.0146824  47.3286645  70.1883090  40.7791232  46.6335786
  72.2875546  39.8360696  44.4061922  71.5398860  40.0291710  44.0010200
  72.4417071  39.0105916  44.1686044  72.1997973  39.7425807  44.3107328
  69.1883384  48.8273299  43.4897818  69.3372947  48.2676215  42.8371222
  69.9683386  48.9065301  43.8730336  69.3257477  48.7558865  43.4494767
  71.7136684  48.9987942  44.7682308  71.6380355  48.3296753  45.3233097
  71.6426543  49.7005730  45.2822975  71.6917291  49.0032850  44.9259157
  72.5277323  33.7311247  45.2957326  72.9849937  34.4635221  45.4230118
  72.6033652  33.3077712  46.0544582  72.6068293  33.7768485  45.4258403
  64.7710314  33.9777066  46.3846770  64.2352504  33.3657425  46.7007537
  64.8328079  34.5525202  47.0380436  64.7005947  33.9723994  46.5282197
  77.0004649  26.9101122  39.1651169  77.1188217  27.3677585  38.4318472
  76.8266825  26.1046383  38.8787387  76.9923820  26.8594894  39.0152103
  72.3706931  47.5188941  35.6005914  73.1356822  47.2498585  35.2788579
  72.2685021  47.0338952  36.3175977  72.4688427  47.4078506  35.6585742
  70.4059701  35.7213351  42.1399150  69.6155776  35.5404811  42.4616486
  70.8020324  34.9440303  42.1229445  70.3476577  35.5800812  42.1851698
  74.8925592  44.5501125  27.5805864  75.6598577  44.6101250  27.1711716
  74.4456901  43.9781566  27.0962182  74.9399019  44.4737701  27.4483574
  75.7903387  43.3555781  39.8658596  75.1148389  43.1241013  40.3671983
  75.7995763  42.7476964  39.2400701  75.6921892  43.2314706  39.8474748
  72.9197531  38.1973610  46.6222649  72.8556672  39.0583566  46.4942786
  73.0594719  37.8805603  45.8218200  72.9313001  38.2773776  46.4850862
  77.7920122  46.2120913  32.0968774  77.8739959  47.0187899  31.7730225
  78.2769864  46.2316872  32.8209547  77.8757280  46.3341576  32.1555673
  71.6016625  40.8905749  40.7638852  71.1778874  41.0910248  40.0277870
  71.4261480  40.0434597  40.8763152  71.5127506  40.7954531  40.6712542
  71.1028318  52.4056262  43.2260309  71.5924249  51.7067051  43.0435974
  70.5312551  52.1080132  43.8136367  71.0912848  52.2582486  43.2861350
  66.8899070  41.3857801  36.1966824  67.0463689  41.3204603  37.0522817
  67.2299663  42.1606353  35.9845504  66.9632305  41.4906999  36.2921419
  73.4278215  40.7615684  35.0660188  73.9693760  40.2586065  35.5298808
  73.7424774  40.7080879  34.2549673  73.5542612  40.6795105  35.0144000
  77.2995322  44.9718331  52.1787100  78.1130187  44.7003480  52.3392232
  77.1390288  44.6725871  51.3747296  77.3965270  44.8873257  52.0832506
  71.5964664  46.1533036  32.3500216  71.6657485  45.2947574  32.4893216
  72.3753119  46.3704917  32.0219240  71.7217514  46.0585900  32.3217373
  74.5767484  35.6551989  45.1182488  74.7909454  35.0162903  44.5645842
  73.9601383  36.0997812  44.6890350  74.5172813  35.6262132  44.9732919
  75.9872152  48.5770737  36.5636709  75.5951944  48.2737452  35.8459575
  76.1425224  49.4139827  36.3741663  75.9525742  48.6554574  36.4293206
  63.4633331  38.5692751  36.5127592  63.8432296  38.9877296  35.8487859
  62.8888696  39.1506207  36.8196435  63.4344656  38.7170610  36.4604333
  76.7406572  37.2641054  46.0565795  75.9283254  36.9566944  46.1378968
  77.1996507  36.7840054  46.6208507  76.6886957  37.1477546  46.1520389
  76.1511827  45.1420726  36.5042740  75.7926481  45.3135369  37.2806772
  75.6650537  45.6033931  35.9470738  76.0270524  45.2359697  36.5368009
  73.9682213  28.7651924  40.1069831  73.0975771  28.7390645  40.0603140
  74.2222554  28.5929116  39.2895677  73.8775773  28.7362068  39.9789968
  70.9400192  40.8219891  29.0442974  71.2292717  41.5984774  29.3186548
  71.0271991  40.3108623  29.7457473  70.9954448  40.8611810  29.1885472
  73.8360080  38.6701125  50.8394498  74.3059711  39.2943242  51.2262372
  73.8821960  38.0018101  51.3987712  73.9127955  38.6635806  50.9794569
  70.9931353  30.7758153  41.5643301  70.4769842  30.0838344  41.6894880
  70.4325282  31.4428930  41.5105900  70.8337866  30.7721410  41.5749367
  73.0623587  31.3151113  43.3936154  72.6755340  31.3400144  44.1749684
  72.5756524  30.7492791  42.9410670  72.9336095  31.2346864  43.4424058
  77.3116566  46.0324622  47.4509940  77.9496287  45.5384817  47.1172396
  76.6690658  45.9602022  46.8662167  77.3110793  45.9483630  47.3152295
  72.7280728  28.2018098  45.6846414  73.3573846  28.7378398  45.4067484
  72.8966591  28.1095457  46.5359979  72.8458523  28.2679460  45.7694942
  72.5294643  32.9889293  47.9572825  73.3568073  32.7174442  48.0131440
  72.5502489  33.7850135  48.3136644  72.6547493  33.0669047  48.0188008
  77.3670823  46.7244430  44.0915297  78.1563201  46.3733495  44.2117379
  77.5414420  47.5380818  43.8291931  77.5091104  46.7930287  44.0703165
  67.1064133  40.1353156  41.1443086  66.2652140  40.0357030  41.3521980
  67.3154141  40.9048636  41.4957407  67.0128826  40.2345199  41.2270401
  64.5839700  37.7572693  38.9727837  64.1896398  37.8315704  38.1977946
  64.0279817  38.1430639  39.5236198  64.4442512  37.8254467  38.9395496
  76.2204647  30.7353987  38.6531716  76.4254240  30.6676295  39.4988713
  75.8931071  31.5412808  38.5852893  76.2019895  30.8439927  38.7691371
  70.9180798  38.0634555  40.3940684  70.6143935  37.5090543  40.9951091
  70.2160219  38.2426765  39.9068718  70.7697008  38.0079337  40.4110389
  69.9746895  35.3735075  34.9585385  70.2506629  34.6553987  34.5462953
  70.5745564  35.9719995  34.7506491  70.1040160  35.3555445  34.8666147
  68.9799149  45.2784276  45.1012781  68.8719504  45.2886338  45.9674839
  69.1894930  46.1039056  44.9117735  68.9949260  45.4025350  45.2016873
  73.4757415  33.0448592  33.2331980  73.9301162  33.2159152  33.9579825
  73.9497461  32.4316703  32.8329756  73.6125736  32.9799477  33.2805742
  67.3933564  33.6898916  43.2302737  67.8535045  33.7637845  43.9677860
  67.4389670  34.4880170  42.8802558  67.4684119  33.8193063  43.2875493
  69.0416913  34.3565611  47.7974764  68.6502479  33.7098958  48.2330541
  69.2102776  34.9477046  48.4169019  69.0087824  34.3479879  47.9537470
  76.7562457  47.9806230  39.9966743  76.5582146  48.4697044  39.3022955
  76.1350168  48.1847471  40.5750877  76.6350022  48.0822768  39.9789967
  70.8170435  39.7491126  34.3376988  71.5612480  40.1365403  34.5759938
  70.9631132  38.9048552  34.5017475  70.9481021  39.6821599  34.3970957
  72.7350011  31.5441385  39.3708849  71.8886056  31.7164193  39.2450199
  72.7321143  30.7390729  39.7074677  72.6097161  31.4502414  39.4019976
  73.8048311  35.3216600  40.2370907  73.3308266  34.7958362  40.7476218
  74.1766447  34.7746073  39.6685769  73.7898200  35.1632596  40.2286054
  64.1821341  37.3188106  45.6054453  65.0446955  37.2183816  45.5191783
  63.8513124  36.7382816  45.0440025  64.2606538  37.2179733  45.5099859
  75.7331811  36.2153154  33.2996661  75.2054830  36.2981898  32.6102370
  76.1927519  36.9571026  33.2961305  75.7233661  36.3373817  33.1971356
  67.5423127  36.1430555  42.2664871  66.9176198  36.1548947  41.6590824
  67.2068722  36.6190731  42.9156111  67.4008619  36.2149072  42.2721439
  67.7264876  34.4855674  28.3237556  67.3777680  35.1375399  28.7869105
  67.2461322  34.4712787  27.5961427  67.6035120  34.5798727  28.2848647
  75.2868894  44.7856718  32.4306318  76.0103092  45.2514831  32.2870891
  74.8469485  44.8530328  31.6803915  75.3284586  44.8640555  32.2991099
  74.4555049  41.6454260  43.6807007  73.8412042  41.1012310  43.9755642
  74.9722334  41.1318497  43.2012823  74.4410711  41.4890669  43.6531235
  73.6951346  42.7158530  41.4151305  73.2678954  42.0908249  40.9816741
  73.6876290  42.4333452  42.2410313  73.6310487  42.5811311  41.4731133
  66.8113873  37.7523703  44.4839739  66.9707360  36.9967027  44.8891461
  66.6306766  38.3014643  45.1380477  66.8079232  37.7217517  44.6402445
  74.7534176  29.9184939  45.0390529  74.2574737  30.1148613  44.3482096
  75.5103238  30.3177607  44.8679331  74.7921001  30.0062673  44.9110666
  72.0237055  33.5927285  41.6293839  72.0479543  33.0587397  40.9406619
  72.2748529  33.0844594  42.2919430  72.0646974  33.4388189  41.6258484
  68.3038378  32.3198103  41.0099584  68.3436749  32.8207310  41.7234291
  67.4788042  32.4108497  40.7405507  68.1877904  32.4079919  41.0750122
  70.4867991  41.8858843  49.1119878  69.6363621  42.0230557  49.2477523
  70.6496118  41.1522621  49.5567580  70.3851854  41.7972944  49.1975478
  69.7252741  38.8358613  43.3073483  68.8944671  39.0032431  43.1008731
  69.6704258  38.4594564  44.0922368  69.5942156  38.8048344  43.3922011
  67.5336524  32.3267506  48.9429893  68.1589228  31.7829639  49.2159326
  67.0787004  31.8462423  48.3737684  67.5584785  32.1756987  48.8991487
  68.0988785  37.1114204  33.8363600  68.2391746  37.6086669  34.5392242
  68.5971318  36.4100499  33.9777814  68.1929866  37.0816183  33.9615179
  68.1289007  37.9781315  31.1656177  68.7634087  38.5741740  31.1005639
  68.2114618  37.6784773  31.9802047  68.2345558  38.0222224  31.2759264
  69.7067990  33.9095291  31.1401619  70.0283831  33.4298373  30.4860882
  69.9694934  34.7194937  30.9492431  69.7934016  33.9585189  31.0157111
  72.9364963  44.9314165  44.6600435  72.4290054  45.4850012  45.1041066
  72.6391609  44.9922455  43.8419210  72.8169848  45.0220476  44.6048892
  75.1027145  33.2967485  43.5025098  75.5282217  32.8440011  42.8908625
  74.4884138  32.7427555  43.7789886  75.0755790  33.1481461  43.4530124
  75.5472743  48.8477423  32.5904379  74.8302053  48.6738285  32.1251616
  76.1979481  48.6129995  32.0579865  75.5374594  48.7873215  32.4433597
  73.5421368  29.7682585  36.9115675  72.8989686  29.6180231  37.4800814
  73.2020775  29.5224930  36.1464780  73.3966445  29.7094707  36.8818691
  78.1320714  37.7242011  36.3345684  77.4611904  38.2671714  36.2058750
  78.8260465  38.1936867  36.0927379  78.1349582  37.8740283  36.2801212
  72.1807448  49.8638723  41.5657442  71.9573103  49.1057553  41.9341469
  71.6917291  49.8936745  40.8437882  72.0750897  49.7560948  41.5134183
  78.2948842  34.1797895  39.2436057  78.6476452  33.7527618  39.9181856
  77.4363643  34.0948739  39.3737134  78.2198287  34.1042636  39.3631068
  66.9932527  36.8105415  37.3018904  66.2744516  37.2269547  37.5691767
  67.3644889  37.3759653  36.7510542  66.9424459  36.9554696  37.2601711
  76.2932108  37.4433264  43.1920899  76.2730035  37.2616559  44.0455678
  76.3411308  38.3145282  43.1680483  76.2966749  37.5449802  43.3144194
  74.2378438  44.0320456  49.1169376  74.1974292  43.3870133  48.5314532
  75.0501756  43.9757073  49.4294788  74.3521591  43.9279422  49.0766325
  70.8285905  50.0839181  39.0194527  70.4146304  49.4213312  38.6298369
  71.5133279  50.2317040  38.4990221  70.8684277  50.0079840  38.8851024
  74.1951199  49.2429267  39.7718143  73.7967482  49.3531537  39.0038964
  73.5802419  49.4511333  40.3544703  74.0450089  49.2902835  39.7449443
  72.7679101  35.8503415  32.6392283  72.1743941  36.1720411  32.0876850
  72.8054379  35.0044510  32.4313389  72.6853490  35.7727743  32.5275054
  75.6436918  35.8082919  36.0694033  75.4150611  35.8315621  35.2272392
  75.9034994  34.9840386  36.1889044  75.6483106  35.6898999  35.9619231
  69.9256146  37.6617392  45.6719134  69.4135049  37.0538575  46.0304165
  69.7535642  38.3773985  46.1393109  69.8245783  37.6780691  45.7935357
  64.7721861  36.1054967  48.3221495  64.6024451  36.7656342  47.7769702
  64.3287811  36.3161529  49.0433985  64.6821195  36.2340950  48.3483125
  68.6981680  34.3459465  37.3648229  69.1739047  34.7076545  36.7298410
  68.1970280  35.0015933  37.6448372  68.6947039  34.4953654  37.3124970
  73.8025217  35.5841637  48.1121389  74.3596647  35.3555446  47.4799855
  73.4786282  36.3447302  47.8356602  73.8371627  35.6625473  47.9777886
  71.5208334  38.6709290  49.0773396  72.2719661  38.9860967  49.3912950
  71.7130910  38.4688461  48.2507318  71.6599748  38.6876672  49.0016792
  70.7408333  36.4900665  30.7321613  71.1207298  36.5080294  29.9472728
  70.0000930  36.9354654  30.6112460  70.6877171  36.5582440  30.5985181
  78.3693624  34.7982856  36.3197192  78.3687850  34.6431513  37.1781468
  78.1649804  35.6445843  36.2638577  78.3393402  34.9003477  36.4385131
  76.0934476  39.4780358  39.9733399  76.5888141  38.7603353  39.9337419
  75.2834252  39.1751156  39.8587886  76.0478369  39.3278004  39.9507124
  71.5393088  43.3278171  32.1230403  70.7304410  43.0044845  32.0763713
  72.0467996  42.6211394  32.0558652  71.4942754  43.1759488  32.1060697
  78.1586295  42.2284046  42.6610527  78.5841366  41.7058468  42.1080952
  77.7943215  42.8264883  42.1399150  78.1672897  42.2394273  42.5019537
  67.7940375  50.5248263  41.4207873  68.1086934  51.3384652  41.4285655
  68.2033788  50.1398482  42.0890032  67.9008473  50.5876966  41.5211965
  74.7464894  45.9418310  38.9911685  75.2176073  46.6558573  39.1601670
  75.0825073  45.3417060  39.5271554  74.8660009  45.9589774  39.0944061
  76.8341879  47.5519623  51.1703757  76.9438844  46.7628184  51.5260504
  77.1632776  47.4625560  50.3678095  76.8994285  47.4225476  51.1046148
  71.6634389  30.7145781  45.9469780  71.7962295  29.9176774  46.2750755
  72.0479542  31.2412184  46.5268055  71.7390718  30.6745697  46.0813283
  75.3838841  45.7336244  45.7539377  74.8359787  45.1094128  45.4859443
  75.8451869  45.9230516  45.0383457  75.3706050  45.6695294  45.6089809
  74.7366744  27.6376107  42.5450873  73.9312708  27.5273836  42.8618711
  74.6073480  27.7388562  41.6880739  74.5986877  27.6359777  42.4658913
  78.1932705  33.8021599  43.1390570  77.6095694  34.3030805  42.7268137
  78.5136999  33.2951155  42.5054893  78.1545880  33.8013434  42.9849077
  70.7327504  32.7162193  33.4149245  71.5543199  32.8860506  33.1730939
  70.2697155  32.8709454  32.6915542  70.7858666  32.7643926  33.2720889
  69.3222836  30.7104956  44.1947673  69.8667249  30.3696082  44.7852015
  69.3759772  31.5690417  44.3368958  69.4111955  30.7860215  44.3029547
  74.9497167  46.7387317  42.2848719  75.7695541  46.5950283  42.5465014
  74.6691245  47.3633516  42.8265157  75.0293910  46.8097669  42.4036658
  73.7801442  59.0529216  37.6596863  73.5451627  58.2196868  37.5529132
  73.9187083  59.3333882  36.8458064  73.7657105  58.9712719  37.5239218
  76.0791530  51.2214947  40.5581171  75.4596561  50.6307594  40.3891186
  75.9775393  51.8126382  39.9245494  75.9729205  51.2219029  40.4386160
  75.8060663  54.7667228  42.8024740  75.6819360  55.3529674  43.4374559
  76.4578947  54.2727424  43.1037015  75.8834312  54.7806033  42.9410669
  75.3418767  63.9314887  38.9353069  74.8586345  64.6565377  38.9112653
  76.1542085  64.2291017  39.0463227  75.3909515  64.0817241  38.9480349
  77.9099308  48.7989493  31.1535969  77.7274881  49.0161373  30.3276962
  78.7724921  48.9128505  31.2094584  78.0103897  48.8479390  31.0390456
  77.5213740  60.6377415  38.5958957  78.3602639  60.8700348  38.6432719
  77.5525509  59.7681726  38.5265993  77.6495457  60.5434361  38.5923602
  78.1466443  61.0578290  42.8972263  78.6864668  60.9149421  43.5675635
  77.4636389  61.4575041  43.2656289  78.1258597  61.0957961  43.0506684
  73.5503588  57.2778581  43.0506684  73.2842003  56.4617697  43.2097675
  73.5642152  57.3231736  42.1802200  73.5128310  57.1635486  42.9460166
  77.4561335  52.0763665  29.6658442  76.7419512  51.7901845  30.0780875
  77.9405303  52.4160291  30.3064830  77.4220698  52.0845315  29.8214077
  73.9597001  58.0637360  40.3318429  73.7772575  58.0384246  39.4790721
  74.6946670  58.5336298  40.3707337  74.0411065  58.1298722  40.2116347
  77.0242753  54.7822363  46.8400537  77.7482725  54.7675394  47.3265432
  77.1258890  55.4917718  46.3422505  77.1460962  54.8847066  46.8379324
  73.9267912  54.9430861  40.4817495  74.5041414  54.8067312  41.1209741
  73.2281974  54.4866645  40.7363080  73.9088933  54.8553127  40.6139785
  69.4026745  53.7942754  37.1965314  69.4886997  53.4174622  37.9778844
  70.0302543  53.4203199  36.7185272  69.5083296  53.6828236  37.2410791
  74.9902704  62.5634487  41.2496674  75.0306849  62.8349338  40.4216454
  75.5497228  63.0876395  41.6654462  75.0786050  62.6810242  41.1888563
  76.4417290  61.1476436  36.0750600  75.6155408  61.3938173  35.9484879
  76.5029281  61.0688517  36.9412658  76.3291457  61.1721385  36.1839545
  76.5860666  50.6903636  34.4762917  76.2985462  50.3204906  33.7394864
  77.2731134  51.1598491  34.2146622  76.6449563  50.7050605  34.3277993
  77.0721954  56.9614657  45.0284461  77.5843051  57.2398910  44.3793221
  76.7858297  57.7003951  45.3947274  77.1056817  57.1117010  44.9874339
  74.1588860  51.4684849  35.3248198  74.2604997  52.2711010  35.6529173
  74.9544747  51.2672184  35.0271278  74.2916766  51.5570747  35.3283553
  74.9752592  51.5832027  43.0669319  74.8338084  50.7315967  43.1913827
  75.2593156  51.6260687  42.2431525  74.9960439  51.4631777  42.9636943
  75.7442898  49.4962374  46.3846770  75.2085087  48.8842732  46.7007537
  75.8060662  50.0710510  47.0380436  75.6738530  49.4909302  46.5282197
  77.8631654  56.9043108  36.1966824  78.0196273  56.8389911  37.0522817
  78.2032247  57.6791661  35.9845504  77.9364888  57.0092307  36.2921419
  74.4365915  54.0878059  36.5127592  74.8164880  54.5062604  35.8487859
  73.8621280  54.6691515  36.8196435  74.4077240  54.2355918  36.4604333
  78.0796717  55.6538464  41.1443086  77.2384723  55.5542338  41.3521980
  78.2886725  56.4233944  41.4957407  77.9861409  55.7530507  41.2270401
  75.5572284  53.2758001  38.9727837  75.1628981  53.3501012  38.1977946
  75.0012400  53.6615947  39.5236198  75.4175096  53.3439775  38.9395496
  77.9705524  58.0482226  42.5634719  77.3793458  58.6891724  42.5337734
  78.7326548  58.4719843  42.5366018  77.9953785  58.2058064  42.5549866
  78.3666147  49.2084224  43.2302737  78.8267629  49.2823153  43.9677860
  78.4122254  50.0065478  42.8802558  78.4416703  49.3378371  43.2875493
  75.1553925  52.8373414  45.6054453  76.0179538  52.7369124  45.5191783
  74.8245708  52.2568124  45.0440025  75.2339121  52.7365041  45.5099859
  78.5155711  51.6615863  42.2664871  77.8908781  51.6734255  41.6590824
  78.1801306  52.1376039  42.9156111  78.3741203  51.7334380  42.2721439
  78.6997460  50.0040982  28.3237556  78.3510264  50.6560707  28.7869105
  78.2193906  49.9898095  27.5961427  78.5767704  50.0984035  28.2848647
  75.2281387  59.7216323  43.7068635  74.6981311  59.0308762  43.7563610
  75.5006480  59.7126509  42.8781344  75.1906109  59.6183455  43.5916051
  77.7846456  53.2709011  44.4839739  77.9439943  52.5152335  44.8891461
  77.6039350  53.8199951  45.1380477  77.7811815  53.2402825  44.6402445
  70.5077229  56.3944088  41.0636984  70.4020678  56.3490932  40.1989068
  69.7577449  56.7397868  41.3451268  70.3812832  56.4384996  40.9774313
  75.6074579  55.6934464  34.4345723  76.1166808  56.2898972  34.8157029
  76.0808851  55.4260438  33.7522143  75.7517954  55.7420280  34.3900246
  77.9665110  52.3290723  37.3018904  77.2477100  52.7454855  37.5691767
  78.3377473  52.8944961  36.7510542  77.9157042  52.4740004  37.2601711
  75.7454445  51.6240275  48.3221495  75.5757035  52.2841650  47.7769702
  75.3020394  51.8346837  49.0433985  75.6553778  51.7526257  48.3483125
  72.6456509  54.5287141  43.5809985  72.0983228  53.8587786  43.6990854
  73.4348887  54.1616989  43.6453453  72.6808693  54.3752127  43.6078686
  71.4043479  53.7407949  40.7356008  71.2265240  53.2884558  41.4610924
  71.1162501  54.5434110  40.9194486  71.3356432  53.7930507  40.8699511
  73.1415948  56.2735672  37.8477767  72.2761468  56.2621363  37.7360539
  73.2414764  56.0865895  38.6948907  73.0290115  56.2441734  37.9566712
  76.1085978  59.9906680  41.0686481  76.7130836  59.9502514  40.4400302
  75.9013291  60.8377832  41.0990537  76.1674876  60.1094682  40.9802598
  71.3437261  58.9741297  40.9385404  71.2461539  58.1637569  41.2475461
  72.1266130  58.9533090  40.5531673  71.4453397  58.8508387  40.9272267
  56.7537299   8.9198053  22.7021804  56.0020198   8.5413591  22.4737849
  57.2023310   8.9516486  21.9540614  56.7086966   8.8683660  22.5579306
  62.2062259   9.3423422  18.1307351  61.8713627  10.0200344  17.6951573
  62.7189129   8.9528733  17.5424223  62.2327840   9.3848000  17.9794142
  61.7466550  11.2937691  24.0718463  62.1305929  11.8624590  23.5323238
  61.6825691  10.5687201  23.5924279  61.7939977  11.2713154  23.9212325
  58.3322055   8.9316445  24.9684576  58.4332418   8.1216799  25.2781704
  57.7363800   8.8373391  24.3384255  58.2594594   8.7981473  24.9210815
  58.1722794  13.8494034  26.3699432  58.8160250  14.2907198  26.7595591
  58.4979050  13.0447460  26.2829691  58.3154623  13.7959229  26.4144910
  51.5287099   4.9536731  24.5936910  51.2937284   4.1204384  24.4869179
  51.6672740   5.2341397  23.7798111  51.5142762   4.8720235  24.4579265
  58.8743374   6.8606009  21.7419294  59.1959215   7.4011216  21.1380602
  59.5215471   6.2902780  21.8741584  59.0169429   6.8565184  21.6726329
  61.1190752   6.6891367  28.6659190  61.4013995   5.8942772  28.4445946
  61.8476912   7.1671954  28.6864251  61.2680316   6.6425963  28.6362206
  53.0904424   9.8322402  25.8693116  52.6072002  10.5572892  25.8452700
  53.9027742  10.1298532  25.9803274  53.1395172   9.9824756  25.8820395
  59.1618578   8.6254583  28.4742931  58.6445520   8.2661998  27.8704239
  59.8592969   8.1016757  28.4848997  59.1884159   8.4952271  28.3873189
  62.8182170   9.0749397  34.4359104  62.9065516   8.8875537  35.2837314
  63.2471882   8.4286827  34.0363950  62.8944272   8.9512405  34.5030855
  60.3852630   8.3580557  33.4176766  59.8223464   7.9453167  33.9416427
  61.1473653   8.2833463  33.8369909  60.4147078   8.2857957  33.5569766
  55.9448621  10.3478578  26.0213396  56.6469200   9.8330567  26.0786153
  55.8646104  10.6752729  26.8260271  56.0372382  10.3192804  26.1486188
  55.2699397   6.5384930  25.5299004  56.1088296   6.7707863  25.5772766
  55.3011166   5.6689242  25.4606039  55.3981114   6.4441877  25.5263649
  55.8952100   6.9585805  29.8312310  56.4350325   6.8156936  30.5015682
  55.2122046   7.3582556  30.1996336  55.8744253   6.9965476  29.9846731
  62.9302229   8.5058416  37.1002887  63.7142646   8.6189264  37.4658629
  62.7298824   7.6799553  37.2961573  63.0168255   8.4005135  37.1837273
  51.2989245   3.1786096  29.9846731  51.0327660   2.3625213  30.1437721
  51.3127809   3.2239252  29.1142247  51.2613967   3.0643001  29.8800213
  63.0872623  10.4168518  30.7469343  62.2887868  10.1768018  31.0043211
  63.5358634  10.4682911  31.4936391  63.0347234  10.3890909  30.8954267
  51.7082658   3.9644876  27.2658475  51.5258232   3.9391762  26.4130768
  52.4432327   4.4343813  27.3047384  51.7896722   4.0306238  27.1456394
  58.0475718   6.2253666  24.3002417  58.6849665   5.9865413  24.8454211
  58.4730790   6.4290825  23.5655578  58.2051884   6.2204676  24.2719575
  52.7388360   8.4642002  28.1836721  52.7792506   8.7356853  27.3556501
  53.2982885   8.9883910  28.5994509  52.8271706   8.5817757  28.1228609
  60.4297190   6.7026088  25.9796204  60.5036198   6.5401260  26.8338054
  61.2466696   6.8916278  25.7356685  60.5613549   6.7062831  26.0694229
  54.1902947   7.0483951  23.0090647  53.3641064   7.2945688  22.8824926
  54.2514938   6.9696032  23.8752705  54.0777114   7.0728900  23.1179592
  58.9701776   9.6660831  20.7109677  59.2600074   9.2749813  19.9868904
  59.7005257   9.8477536  21.1514952  59.1208660   9.6354645  20.6692484
  56.9107691  11.6428214  23.7769827  56.6907987  11.3525568  24.5696494
  56.6902213  10.9843169  23.2487739  56.8455286  11.5027922  23.8158735
  59.0775647  13.0157604  22.5600519  59.7299705  12.4834046  22.7891545
  58.3801256  12.6626256  22.9468393  59.0706365  12.8847127  22.6512687
  56.0256912   5.3696781  21.9667894  56.7802880   5.7509820  22.1803356
  55.4327525   5.8207925  22.4214590  56.0493626   5.4925609  22.0650772
  57.3455139   6.5405343  27.3408009  56.8235892   6.6805634  28.0259874
  57.7329159   5.7816007  27.5310126  57.3258839   6.4490866  27.4709085
  63.5422144   8.2800802  21.3268578  63.3008819   7.5468663  20.9195643
  63.7223476   8.8287659  20.6734911  63.5329767   8.2523193  21.1698801
  57.9101624  10.2466123  30.4237864  58.0591188   9.6869039  29.7711269
  58.6901626  10.3258124  30.8070383  58.0475718  10.1751688  30.3834814
  60.4354925  10.4180766  31.7022355  60.3598596   9.7489576  32.2573143
  60.3644784  11.1198554  32.2163021  60.4135531  10.4225673  31.8599203
  61.0925171   8.9381764  22.5345961  61.8575063   8.6691408  22.2128625
  60.9903261   8.4531775  23.2516024  61.1906667   8.8271329  22.5925789
  59.8246559  13.8249085  30.1600356  60.3142489  13.1259875  29.9776021
  59.2530791  13.5272955  30.7476413  59.8131089  13.6775309  30.2201397
  60.3182905   7.5725859  19.2840262  60.3875725   6.7140397  19.4233263
  61.0971360   7.7897740  18.9559287  60.4435755   7.4778723  19.2557420
  64.7090392   9.9963560  23.4976756  64.3170184   9.6930275  22.7799622
  64.8643464  10.8332650  23.3081710  64.6743982  10.0747397  23.3633253
  66.0889063   8.1437253  31.0255344  66.8781441   7.7926318  31.1457426
  66.2632661   8.9573642  30.7631978  66.2309345   8.2123110  31.0043212
  57.7017389   6.6977099  32.0352828  57.5937744   6.7079161  32.9014886
  57.9113171   7.5231879  31.8457782  57.7167500   6.8218174  32.1356920
  55.7191181   3.9489741  29.4974766  55.1279115   4.5899239  29.4677781
  56.4812205   4.3727359  29.4706065  55.7439442   4.1065580  29.4889913
  65.4780698   9.3999053  26.9306790  65.2800386   9.8889867  26.2363002
  64.8568409   9.6040294  27.5090924  65.3568262   9.5015591  26.9130013
  52.9767043   5.6223839  30.6408682  52.4466968   4.9316278  30.6903657
  53.2492137   5.6134024  29.8121391  52.9391766   5.5190971  30.5256098
  48.2562886   2.2951603  27.9977030  48.1506335   2.2498447  27.1329114
  47.5063106   2.6405384  28.2791315  48.1298489   2.3392511  27.9114360
  61.6583203   6.3506988  31.5940482  61.1508294   6.9042835  32.0381113
  61.3609849   6.4115278  30.7759257  61.5388088   6.4413300  31.5388939
  64.2690984  10.2670246  19.5244426  63.5520293  10.0931108  19.0591663
  64.9197721  10.0322818  18.9919912  64.2592834  10.2066039  19.3773644
  60.9025689  11.2831547  28.4997489  60.6791343  10.5250376  28.8681515
  60.4135532  11.3129568  27.7777929  60.7969138  11.1753771  28.4474230
  59.5504145  11.5032005  25.9534574  59.1364544  10.8406135  25.5638415
  60.2351520  11.6509864  25.4330268  59.5902517  11.4272663  25.8191071
  62.9169440  10.6622090  26.7058190  62.5185723  10.7724360  25.9379011
  62.3020659  10.8704156  27.2884750  62.7668329  10.7095658  26.6789490
  56.5158615  11.9441086  28.3547920  56.8305174  12.7577475  28.3625701
  56.9252028  11.5591305  29.0230079  56.6226713  12.0069789  28.4552011
  63.4683135   7.3611133  25.9251732  63.9394313   8.0751396  26.0941717
  63.8043313   6.7609883  26.4611601  63.5878250   7.3782597  26.0284108
  65.5560119   8.9712447  38.1043804  65.6657085   8.1821007  38.4600551
  65.8851016   8.8818383  37.3018142  65.6212525   8.8418299  38.0386194
  53.8571635   5.8914195  28.0026528  54.4616493   5.8510029  27.3740349
  53.6498948   6.7385347  28.0330584  53.9160533   6.0102197  27.9142645
  63.6715407   8.1580140  29.2188766  64.4913781   8.0143106  29.4805061
  63.3909485   8.7826339  29.7605203  63.7512151   8.2290492  29.3376705
  49.0922918   4.8748812  27.8725451  48.9947196   4.0645084  28.1815508
  49.8751787   4.8540606  27.4871719  49.1939054   4.7515903  27.8612314
  73.3428743  14.9020643  26.9384572  72.4866638  15.0629141  26.9893689
  73.3896396  14.0312707  26.9589633  73.2227854  14.7971445  26.9490638
  67.7269882  24.4383361  22.7021804  66.9752782  24.0598899  22.4737849
  68.1755894  24.4701794  21.9540614  67.6819549  24.3868968  22.5579306
  76.6522459  21.1707168  36.5445028  77.3589226  20.6759199  36.6731963
  76.8410395  21.6116250  35.8147686  76.7850365  21.1625519  36.4554074
  73.1794842  24.8608730  18.1307351  72.8446211  25.5385652  17.6951573
  73.6921713  24.4714041  17.5424223  73.2060423  24.9033308  17.9794142
  72.7199133  26.8122999  24.0718463  73.1038513  27.3809897  23.5323238
  72.6558275  26.0872509  23.5924279  72.7672561  26.7898462  23.9212325
  76.1880564  16.9612687  29.5816224  76.7336524  17.6397773  29.6410194
  76.1297440  16.8200148  28.7217805  76.2596478  17.0404688  29.4628285
  69.3054638  24.4501753  24.9684576  69.4065001  23.6402107  25.2781704
  68.7096384  24.3558699  24.3384255  69.2327177  24.3166781  24.9210815
  77.9645632  18.3897294  20.4549952  77.8485158  19.1404980  20.8842090
  78.7601519  18.1321247  20.7046039  78.0650222  18.4632141  20.5554043
  69.1455378  29.3679342  26.3699432  69.7892834  29.8092506  26.7595591
  69.4711634  28.5632768  26.2829691  69.2887207  29.3144537  26.4144910
  62.5019683  20.4722039  24.5936910  62.2669867  19.6389692  24.4869179
  62.6405323  20.7526705  23.7798111  62.4875345  20.3905543  24.4579265
  64.8009770  12.6407770  27.4921218  64.1814802  12.0500417  27.3231233
  64.6993634  13.2319205  26.8585541  64.6947446  12.6411852  27.3726207
  69.8475958  22.3791317  21.7419294  70.1691799  22.9196524  21.1380602
  70.4948054  21.8088088  21.8741584  69.9902013  22.3750492  21.6726329
  71.8977666  14.3807312  21.8253681  72.5957831  14.5595439  22.3175144
  72.2129998  13.8577651  21.2024070  72.0473003  14.3301084  21.8055691
  64.5278903  16.1860052  29.7364787  64.4037600  16.7722497  30.3714606
  65.1797188  15.6920247  30.0377062  64.6052553  16.1998856  29.8750716
  72.0865601  20.7677757  21.8133472  72.5259237  20.1594857  22.2588245
  71.9370264  20.3885130  21.0418937  72.1287067  20.6216228  21.7652640
  69.5537244  19.3621769  29.0152298  70.1986247  18.8694212  28.6963246
  69.7939021  19.5046555  29.8418376  69.6847829  19.3099211  29.0901831
  72.0923336  22.2076674  28.6659190  72.3746578  21.4128080  28.4445946
  72.8209496  22.6857262  28.6864251  72.2412899  22.1611271  28.6362206
  70.0704529   9.7499708  25.9074955  69.7407859  10.2010852  25.2378654
  69.3949531   9.6715872  26.4547962  69.9214966   9.8050844  25.8898179
  75.6874938  19.1204938  18.7664242  75.6026233  19.9765905  18.9113810
  76.1759321  18.8449262  19.4346401  75.7463835  19.2062259  18.8866323
  76.6193371  15.7389732  20.2661977  76.0904842  15.9549366  20.9259283
  77.1418391  16.4325871  20.1862946  76.6181824  15.8732869  20.3517576
  68.5092979  19.6352949  19.0669445  67.9250194  20.1402980  19.4735309
  68.1063074  19.4095336  18.3266037  68.3632283  19.6761197  19.0174470
  64.0637007  25.3507710  25.8693116  63.5804586  26.0758200  25.8452700
  64.8760326  25.6483840  25.9803274  64.1127755  25.5010064  25.8820395
  70.1351161  24.1439891  28.4742931  69.6178103  23.7847306  27.8704239
  70.8325553  23.6202065  28.4848997  70.1616743  24.0137579  28.3873189
  73.7914753  24.5934705  34.4359104  73.8798099  24.4060845  35.2837314
  74.2204466  23.9472134  34.0363950  73.8676856  24.4697713  34.5030855
  71.3585213  23.8765865  33.4176766  70.7956048  23.4638475  33.9416427
  72.1206237  23.8018771  33.8369909  71.3879662  23.8043265  33.5569766
  66.9181205  25.8663886  26.0213396  67.6201784  25.3515875  26.0786153
  66.8378688  26.1938037  26.8260271  67.0104965  25.8378112  26.1486188
  67.9660111  16.1039473  35.1493811  68.1380615  15.9945368  35.9979093
  68.5029469  16.7493878  34.9125003  68.0705115  16.1831475  35.2398908
  66.6317548  10.2182316  18.0876016  66.4493121  10.4354197  17.2617009
  67.4943161  10.3321329  18.1434631  66.7322138  10.2672214  17.9730503
  66.2431980  22.0570238  25.5299004  67.0820880  22.2893171  25.5772766
  66.2743749  21.1874549  25.4606039  66.3713698  21.9627184  25.5263649
  66.8684683  22.4771113  29.8312310  67.4082908  22.3342244  30.5015682
  66.1854629  22.8767864  30.1996336  66.8476837  22.5150784  29.9846731
  76.2925568  18.1562114  25.0257334  77.0483083  18.5893628  25.0646243
  76.3987892  17.5066884  25.5991970  76.4195739  18.1239598  25.1155360
  73.9034813  24.0243724  37.1002887  74.6875229  24.1374572  37.4658629
  73.7031407  23.1984861  37.2961573  73.9900838  23.9190443  37.1837273
  62.2721828  18.6971404  29.9846731  62.0060243  17.8810521  30.1437721
  62.2860392  18.7424560  29.1142247  62.2346551  18.5828309  29.8800213
  66.1779575  13.4956488  16.5998489  65.4637752  13.2094668  17.0120922
  66.6623544  13.8353114  17.2404877  66.1438938  13.5038138  16.7554124
  67.0220435  12.2349782  32.6313739  66.3292231  11.7646762  32.8774470
  67.6380762  12.0088087  33.2055446  67.0104965  12.1316914  32.7522891
  74.0605206  25.9353826  30.7469343  73.2620452  25.6953326  31.0043211
  74.5091218  25.9868219  31.4936391  74.0079817  25.9076217  30.8954267
  73.3526893  21.9986442  16.9760297  73.7678042  21.6671466  16.2844793
  72.5218823  21.7655345  16.8480434  73.2914902  21.9157698  16.8551145
  62.6815242  19.4830183  27.2658475  62.4990815  19.4577069  26.4130768
  63.4164911  19.9529121  27.3047384  62.7629306  19.5491546  27.1456394
  65.7460994  16.2015186  33.7740584  66.4700966  16.1868217  34.2605479
  65.8477130  16.9110542  33.2762552  65.8679203  16.3039889  33.7719371
  73.1205943  19.6814271  38.6389531  72.3278924  19.9957783  38.8242151
  73.2354870  19.8965739  37.8010316  73.0201353  19.7598108  38.5427866
  75.7937262  16.4048262  22.9284547  75.8884116  17.1437556  23.3824172
  75.1696105  15.9765738  23.3619111  75.7146292  16.4509583  23.0592694
  74.0489736  19.5834475  33.5774828  74.6228597  18.9461719  33.7323392
  73.9704539  19.5838557  32.7084485  74.1222971  19.4899586  33.4721239
  62.6486152  16.3623684  27.4157542  63.2259655  16.2260135  28.0549787
  61.9500214  15.9059468  27.6703126  62.6307174  16.2745950  27.5479832
  69.4053454  18.0157740  25.6296025  69.1472699  17.1829475  25.6027325
  69.4601937  18.2415353  24.7888526  69.3753232  17.9255511  25.5016162
  68.3788167  15.5695502  26.1160920  67.8037758  15.7287671  26.7524881
  68.0023843  14.9330911  25.6529371  68.2390979  15.4993315  26.1415478
  72.0461455  14.0418852  30.9753298  71.6575888  13.6173069  30.3205490
  71.3816154  14.2901001  31.4830325  71.8908383  14.0157573  30.9541166
  58.1244985  15.2135577  24.1305361  58.2105237  14.8367445  24.9118891
  58.7520783  14.8396023  23.6525319  58.2301536  15.1021059  24.1750838
  73.1500393  18.2717456  19.1730105  73.9641032  18.5632349  19.0612877
  73.0859535  17.6177318  18.5988398  73.2603132  18.2182651  19.0718943
  69.0208302  21.7438974  24.3002417  69.6582249  21.5050721  24.8454211
  69.4463373  21.9476132  23.5655578  69.1784468  21.7389984  24.2719575
  63.7120944  23.9827310  28.1836721  63.7525089  24.2542161  27.3556501
  64.2715468  24.5069218  28.5994509  63.8004290  24.1003065  28.1228609
  69.6611117  16.9641263  18.6377307  70.0456269  16.7448970  19.3893852
  69.4122737  17.7904209  18.7678383  69.6813189  17.0539410  18.7678383
  69.8279657  10.2447679  38.3539891  69.5133098  11.0147241  38.0909454
  69.5069590   9.6817935  37.7692118  69.7338576  10.2757947  38.2281241
  71.4029774  22.2211396  25.9796204  71.4768782  22.0586568  26.8338054
  72.2199280  22.4101586  25.7356685  71.5346132  22.2248139  26.0694229
  65.1635530  22.5669259  23.0090647  64.3373648  22.8130996  22.8824926
  65.2247522  22.4881340  23.8752705  65.0509697  22.5914208  23.1179592
  67.3811554   8.6338200  23.9686087  66.5133980   8.7060799  24.0343697
  67.6686758   9.4360279  24.1574062  67.2951302   8.7632347  24.0060854
  69.9434359  25.1846139  20.7109677  70.2332658  24.7935121  19.9868904
  70.6737840  25.3662844  21.1514952  70.0941244  25.1539953  20.6692484
  70.5329105  19.9863885  31.7962808  70.0340798  20.6979653  31.8747696
  71.3429329  20.3064552  31.7580970  70.5785211  20.1390734  31.8019376
  67.8840275  27.1613522  23.7769827  67.6640570  26.8710876  24.5696494
  67.6634797  26.5028477  23.2487739  67.8187869  27.0213230  23.8158735
  66.7957222  19.2486838  26.0425528  66.5070471  18.6224309  26.5771256
  67.6640570  19.1907126  26.1090209  66.8817474  19.1474382  26.1316483
  77.5835120  14.3921622  26.3607510  77.2399886  13.6711957  26.7114760
  77.6828162  14.1835473  25.5185869  77.5477163  14.2545825  26.2879190
  70.0508231  28.5342912  22.5600519  70.7032289  28.0019354  22.7891545
  69.3533839  28.1811564  22.9468393  70.0438949  28.4032435  22.6512687
  66.9989495  20.8882089  21.9667894  67.7535463  21.2695128  22.1803356
  66.4060108  21.3393233  22.4214590  67.0226209  21.0110917  22.0650772
  78.0448149  20.8547326  21.9031498  78.6106182  21.5140536  21.8190041
  77.3976052  21.1997024  22.3747901  78.0326905  21.0029267  21.9604255
  69.4596163  12.8444930  37.0925106  68.6495938  13.1502709  36.9814948
  69.9370849  13.5650512  37.2077690  69.4099641  12.9959531  37.0932177
  68.3187722  22.0590651  27.3408009  67.7968476  22.1990942  28.0259874
  68.7061742  21.3001315  27.5310126  68.2991423  21.9676174  27.4709085
  65.3078906  12.1096459  21.4102964  65.0203702  11.7397730  20.6734911
  65.9949374  12.5791315  21.1486669  65.3667803  12.1243429  21.2618039
  74.5154727  23.7986110  21.3268578  74.2741403  23.0653970  20.9195643
  74.6956060  24.3472967  20.6734911  74.5062351  23.7708501  21.1698801
  69.7454048  19.0894670  22.7389500  69.5496830  19.6969404  22.1449803
  69.9688393  18.3962614  22.2581174  69.7488689  19.0772195  22.5805581
  68.1432578  15.9749408  22.8570368  68.8655230  16.1390566  22.3974174
  67.6640571  16.6959072  22.7509708  68.1796308  16.1047637  22.7735982
  76.1026085  12.3113206  28.2367053  75.2637186  12.3374485  28.0005316
  76.1730453  12.9583942  28.8172400  75.9894479  12.4109332  28.2876170
  65.7940194  18.3807480  31.9624508  66.3061291  18.6591733  31.3133268
  65.5076537  19.1196774  32.3287321  65.8275058  18.5309834  31.9214386
  62.8807101  12.8877672  22.2588245  62.9823237  13.6903833  22.5869220
  63.6762987  12.6865008  21.9611325  63.0135006  12.9763571  22.2623600
  69.3123920  10.4733869  32.0225550  69.1207117  10.4889003  32.8724973
  70.1622516  10.6697543  31.9992205  69.4099642  10.5048220  32.1448845
  63.6970833  13.0024850  30.0009366  63.5556325  12.1508791  30.1253874
  63.9811396  13.0453511  29.1771572  63.7178679  12.8824600  29.8976990
  73.8509425  14.8391940  24.1453854  73.6044139  14.7587691  24.9790643
  74.1794548  14.0545408  23.9516382  73.8630669  14.7118206  24.2401378
  77.7457474  21.5475300  27.9340636  77.6071833  22.2456345  28.4389378
  76.9657472  21.3923956  27.5776818  77.6100701  21.6275466  27.9566910
  76.0835559  17.8471675  34.1863017  76.0783598  16.9751491  34.1905444
  76.7896553  18.0459844  33.7132473  76.1880563  17.7475549  34.1170053
  69.8106452  17.5748659  33.5576838  69.9549828  18.1549867  32.9219948
  70.1582101  17.9524955  34.2626692  69.8833914  17.7169363  33.5675833
  71.9826370  16.7738827  31.3401969  71.2349684  16.9669842  30.9350247
  72.1367895  15.9484047  31.1026090  71.8948797  16.6803939  31.2447375
  68.8834207  25.7651431  30.4237864  69.0323771  25.2054346  29.7711269
  69.6634210  25.8443432  30.8070383  69.0208301  25.6936996  30.3834814
  71.4087508  25.9366073  31.7022355  71.3331179  25.2674884  32.2573143
  71.3377367  26.6383862  32.2163021  71.3868115  25.9410981  31.8599203
  72.2228147  10.6689378  32.2297373  72.6800761  11.4013352  32.3570165
  72.2984476  10.2455843  32.9884629  72.3019117  10.7146616  32.3598449
  64.4661138  10.9155198  33.3186817  63.9303328  10.3035556  33.6347584
  64.5278903  11.4903334  33.9720483  64.3956771  10.9102125  33.4622243
  72.0657755  24.4567072  22.5345961  72.8307646  24.1876716  22.2128625
  71.9635845  23.9717083  23.2516024  72.1639251  24.3456637  22.5925789
  70.1010525  12.6591482  29.0739197  69.3106600  12.4782942  29.3956533
  70.4971148  11.8818434  29.0569491  70.0427401  12.5178943  29.1191745
  75.4854211  20.2933912  26.7998643  74.8099213  20.0619144  27.3012030
  75.4946587  19.6855095  26.1740748  75.3872716  20.1692837  26.7814795
  72.6148355  15.1351741  33.5562696  72.5507496  15.9961697  33.4282833
  72.7545543  14.8183734  32.7558247  72.6263825  15.2151908  33.4190909
  77.4870946  23.1499044  19.0308821  77.5690783  23.9566031  18.7070272
  77.9720688  23.1695004  19.7549594  77.5708104  23.2719707  19.0895719
  71.2967449  17.8283880  27.6978899  70.8729698  18.0288379  26.9617917
  71.1212304  16.9812728  27.8103199  71.2078330  17.7332662  27.6052589
  70.7979142  29.3434393  30.1600356  71.2875073  28.6445182  29.9776021
  70.2263375  29.0458263  30.7476413  70.7863672  29.1960617  30.2201397
  66.5849894  18.3235932  23.1306871  66.7414513  18.2582734  23.9862863
  66.9250487  19.0984484  22.9185551  66.6583129  18.4285130  23.2261465
  73.1229039  17.6993815  22.0000234  73.6644584  17.1964196  22.4638855
  73.4375598  17.6459010  21.1889720  73.2493436  17.6173236  21.9484047
  76.9946146  21.9096463  39.1127147  77.8081011  21.6381611  39.2732279
  76.8341112  21.6104003  38.3087343  77.0916094  21.8251389  39.0172553
  71.2915488  23.0911167  19.2840262  71.3608309  22.2325705  19.4233263
  72.0703943  23.3083048  18.9559287  71.4168338  22.9964031  19.2557420
  74.2718308  12.5930120  32.0522535  74.4860277  11.9541034  31.4985889
  73.6552207  13.0375944  31.6230397  74.2123637  12.5640263  31.9072966
  75.6822976  25.5148868  23.4976756  75.2902768  25.2115583  22.7799622
  75.8376048  26.3517958  23.3081710  75.6476566  25.5932705  23.3633253
  63.1584155  15.5070882  23.4467638  63.5383120  15.9255427  22.7827906
  62.5839520  16.0884338  23.7536482  63.1295480  15.6548741  23.3944379
  76.4357396  14.2019185  32.9905842  75.6234078  13.8945075  33.0719015
  76.8947331  13.7218185  33.5548554  76.3837781  14.0855677  33.0860436
  75.8462651  22.0798857  23.4382786  75.4877305  22.2513500  24.2146819
  75.3601361  22.5412063  22.8810785  75.7221348  22.1737828  23.4708055
  70.6351016  17.7598022  15.9783021  70.9243541  18.5362905  16.2526595
  70.7222815  17.2486754  16.6797520  70.6905272  17.7989941  16.1225519
  73.5310903  15.6079256  37.7734544  74.0010535  16.2321373  38.1602418
  73.5772784  14.9396232  38.3327759  73.6078779  15.6013937  37.9134616
  77.0067390  22.9702753  34.3849987  77.6447110  22.4762949  34.0512443
  76.3641482  22.8980153  33.8002214  77.0061616  22.8861761  34.2492342
  78.7324390  14.8191899  28.9515903  78.3051998  14.7318247  28.1964002
  78.0950443  14.9269674  29.5370747  78.5753997  14.8224559  28.9261344
  77.0621647  23.6622561  31.0255344  77.8514025  23.3111626  31.1457426
  77.2365244  24.4758950  30.7631978  77.2041928  23.7308418  31.0043212
  66.8014957  17.0731287  28.0783133  65.9602964  16.9735161  28.2862027
  67.0104965  17.8426767  28.4297454  66.7079650  17.1723330  28.1610448
  64.2790524  14.6950824  25.9067884  63.8847222  14.7693836  25.1317993
  63.7230641  15.0808770  26.4576245  64.1393336  14.7632598  25.8735543
  70.6131622  15.0012686  27.3280730  70.3094759  14.4468674  27.9291138
  69.9111043  15.1804896  26.8408765  70.4647832  14.9457468  27.3450436
  69.6697719  12.3113206  21.8925432  69.9457453  11.5932118  21.4803000
  70.2696388  12.9098126  21.6846538  69.7990984  12.2933577  21.8006193
  68.6749973  22.2162407  32.0352828  68.5670328  22.2264469  32.9014886
  68.8845754  23.0417187  31.8457782  68.6900084  22.3403482  32.1356920
  66.6923765  19.4675049  29.4974766  66.1011698  20.1084547  29.4677781
  67.4544788  19.8912666  29.4706065  66.7172025  19.6250888  29.4889913
  67.0884388  10.6277047  30.1642783  67.5485869  10.7015976  30.9017907
  67.1340494  11.4258301  29.8142605  67.1634943  10.7571194  30.2215540
  68.7367737  11.2943742  34.7314810  68.3453303  10.6477089  35.1670588
  68.9053600  11.8855177  35.3509066  68.7038648  11.2858010  34.8877516
  76.4513281  24.9184361  26.9306790  76.2532970  25.4075175  26.2363002
  75.8300992  25.1225602  27.5090924  76.3300846  25.0200899  26.9130013
  70.5121259  16.6869258  21.2717034  71.2563304  17.0743534  21.5099984
  70.6581956  15.8426683  21.4357522  70.6431845  16.6199730  21.3311004
  73.4999135  12.2594731  27.1710954  73.0259090  11.7336493  27.6816265
  73.8717271  11.7124204  26.6025815  73.4849024  12.1010728  27.1626101
  63.8772165  14.2566238  32.5394500  64.7397778  14.1561947  32.4531829
  63.5463948  13.6760947  31.9780072  63.9557362  14.1557864  32.4439905
  67.2373951  13.0808687  29.2004918  66.6127022  13.0927079  28.5930870
  66.9019546  13.5568862  29.8496158  67.0959443  13.1527204  29.2061486
  67.4215700  11.4233805  15.2577603  67.0728504  12.0753530  15.7209152
  66.9412146  11.4090918  14.5301474  67.2985944  11.5176859  15.2188694
  63.9499627  21.1409147  30.6408682  63.4199551  20.4501586  30.6903657
  64.2224720  21.1319332  29.8121391  63.9124349  21.0376279  30.5256098
  74.9819717  21.7234849  19.3646365  75.7053916  22.1892962  19.2210938
  74.5420308  21.7908459  18.6143962  75.0235410  21.8018686  19.2331146
  74.1505873  18.5832391  30.6147054  73.5362866  18.0390442  30.9095689
  74.6673157  18.0696628  30.1352870  74.1361535  18.4268800  30.5871282
  73.3902170  19.6536661  28.3491352  72.9629778  19.0286380  27.9156788
  73.3827114  19.3711583  29.1750359  73.3261311  19.5189442  28.4071180
  66.5064697  14.6901834  31.4179786  66.6658183  13.9345159  31.8231508
  66.3257590  15.2392774  32.0720524  66.5030056  14.6595648  31.5742492
  71.7187879  10.5305416  28.5633886  71.7430367   9.9965528  27.8746666
  71.9699353  10.0222725  29.2259477  71.7597798  10.3766320  28.5598531
  59.2295469  17.8136911  27.9977030  59.1238918  17.7683755  27.1329114
  58.4795689  18.1590691  28.2791315  59.1031072  17.8577819  27.9114360
  67.9989202   9.2576234  27.9439631  68.0387573   9.7585441  28.6574338
  67.1738866   9.3486628  27.6745554  67.8828728   9.3458050  28.0090169
  70.1818814  18.8236974  36.0459925  69.3314445  18.9608688  36.1817570
  70.3446942  18.0900752  36.4907627  70.0802678  18.7351075  36.1315524
  69.4203565  15.7736744  30.2413530  68.5895495  15.9410562  30.0348778
  69.3655082  15.3972695  31.0262415  69.2892980  15.7426475  30.3262058
  67.2287348   9.2645637  35.8769940  67.8540052   8.7207770  36.1499373
  66.7737828   8.7840554  35.3077731  67.2535609   9.1135118  35.8331534
  67.7939609  14.0492336  20.7703647  67.9342570  14.5464800  21.4732289
  68.2922142  13.3478630  20.9117861  67.8880690  14.0194314  20.8955226
  67.8239831  14.9159447  18.0996224  68.4584911  15.5119872  18.0345686
  67.9065442  14.6162904  18.9142094  67.9296382  14.9600355  18.2099311
  69.4018814  10.8473422  18.0741666  69.7234655  10.3676504  17.4200928
  69.6645758  11.6573068  17.8832478  69.4884839  10.8963320  17.9497158
  72.6315787  21.8692296  31.5940482  72.1240878  22.4228143  32.0381113
  72.3342433  21.9300586  30.7759257  72.5120672  21.9598608  31.5388939
  64.3292819  17.1127287  21.3685770  64.8385048  17.7091795  21.7497076
  64.8027091  16.8453261  20.6862190  64.4736195  17.1613103  21.3240293
  75.2423567  25.7855554  19.5244426  74.5252877  25.6116416  19.0591663
  75.8930305  25.5508126  18.9919912  75.2325418  25.7251347  19.3773644
  77.8271538  14.6620143  23.2685731  77.1562728  15.2049845  23.1398796
  78.5211289  15.1314998  23.0267426  77.8300406  14.8118414  23.2141259
  71.8758272  26.8016855  28.4997489  71.6523927  26.0435684  28.8681515
  71.3868115  26.8314876  27.7777929  71.7701721  26.6939079  28.4474230
  66.6883351  13.7483546  24.2358951  65.9695340  14.1647678  24.5031814
  67.0595713  14.3137785  23.6850589  66.6375283  13.8932827  24.1941758
  75.9882932  14.3811395  30.1260946  75.9680859  14.1994690  30.9795725
  76.0362132  15.2523413  30.1020530  75.9917573  14.4827933  30.2484241
  73.9329261  20.9698587  36.0509423  73.8925116  20.3248264  35.4654579
  74.7452580  20.9135204  36.3634835  74.0472415  20.8657554  36.0106372
  70.5236729  27.0217313  25.9534574  70.1097128  26.3591443  25.5638415
  71.2084103  27.1695171  25.4330268  70.5635101  26.9457971  25.8191071
  73.8902023  26.1807398  26.7058190  73.4918306  26.2909668  25.9379011
  73.2753243  26.3889464  27.2884750  73.7400912  26.2280966  26.6789490
  72.4629925  12.7881546  19.5732330  71.8694764  13.1098542  19.0216897
  72.5005203  11.9422641  19.3653436  72.3804314  12.7105874  19.4615101
  75.3387742  12.7461050  23.0034080  75.1101435  12.7693752  22.1612438
  75.5985818  11.9218517  23.1229091  75.3433930  12.6277130  22.8959278
  69.6206970  14.5995523  32.6059180  69.1085873  13.9916706  32.9644212
  69.4486466  15.3152116  33.0733156  69.5196607  14.6158823  32.7275404
  64.4672685  13.0433099  35.2561542  64.2975275  13.7034473  34.7109749
  64.0238635  13.2539660  35.9774031  64.3772018  13.1719081  35.2823172
  68.3932504  11.2837597  24.2988276  68.8689871  11.6454676  23.6638457
  67.8921104  11.9394064  24.5788419  68.3897863  11.4331785  24.2465017
  73.4976041  12.5219768  35.0461436  74.0547471  12.2933577  34.4139901
  73.1737106  13.2825434  34.7696648  73.5322451  12.6003605  34.9117933
  61.3674749  15.9479964  30.5150032  60.8201469  15.2780610  30.6330900
  62.1567128  15.5809812  30.5793499  61.4026933  15.7944951  30.5418733
  71.2159158  15.6087421  36.0113443  71.9670485  15.9239098  36.3252997
  71.4081734  15.4066592  35.1847365  71.3550572  15.6254803  35.9356839
  70.4359157  13.4278796  17.6661660  70.8158122  13.4458426  16.8812775
  69.6951753  13.8732785  17.5452507  70.3827995  13.4960571  17.5325228
  60.1261719  15.1600772  27.6696055  59.9483480  14.7077381  28.3950971
  59.8380741  15.9626933  27.8534533  60.0574672  15.2123330  27.8039558
  75.7885300  16.4158489  26.9073445  76.2838965  15.6981484  26.8677466
  74.9785076  16.1129287  26.7927932  75.7429193  16.2656136  26.8847171
  71.2343912  20.2656303  19.0570450  70.4255234  19.9422976  19.0103759
  71.7418820  19.5589525  18.9898699  71.1893578  20.1137619  19.0400744
  61.8634189  17.6928496  24.7817814  60.9979708  17.6814186  24.6700585
  61.9633005  17.5058719  25.6288953  61.7508356  17.6634557  24.8906759
  77.8537119  19.1662177  29.5950574  78.2792190  18.6436599  29.0420999
  77.4894039  19.7643014  29.0739197  77.8623721  19.1772404  29.4359584
  67.4891199  27.4626394  28.3547920  67.8037758  28.2762783  28.3625701
  67.8984612  27.0776613  29.0230079  67.5959297  27.5255097  28.4552011
  74.4415718  22.8796441  25.9251732  74.9126896  23.5936704  26.0941717
  74.7775897  22.2795191  26.4611601  74.5610833  22.8967905  26.0284108
  76.5292703  24.4897755  38.1043804  76.6389668  23.7006315  38.4600551
  76.8583600  24.4003691  37.3018142  76.5945109  24.3603607  38.0386194
  75.0789665  22.6714375  32.6879424  74.5310611  22.0472259  32.4199490
  75.5402693  22.8608647  31.9723504  75.0656874  22.6073425  32.5429855
  70.4278328   9.6540325  20.3489291  71.2494022   9.8238637  20.1070986
  69.9647979   9.8087586  19.6255589  70.4809490   9.7022058  20.2060936
  64.8304219  21.4099503  28.0026528  65.4349076  21.3695337  27.3740349
  64.6231531  22.2570655  28.0330584  64.8893116  21.5287505  27.9142645
  74.6447991  23.6765448  29.2188766  75.4646365  23.5328414  29.4805061
  74.3642069  24.3011647  29.7605203  74.7244734  23.7475800  29.3376705
  60.0655501  20.3934120  27.8725451  59.9679779  19.5830392  28.1815508
  60.8484371  20.3725914  27.4871719  60.1671638  20.2701211  27.8612314
  73.4752266  35.9907347  24.5936910  73.2402451  35.1575000  24.4869179
  73.6137907  36.2712013  23.7798111  73.4607929  35.9090851  24.4579265
  75.7742354  28.1593078  27.4921218  75.1547385  27.5685725  27.3231233
  75.6726217  28.7504513  26.8585541  75.6680029  28.1597160  27.3726207
  75.5011487  31.7045360  29.7364787  75.3770184  32.2907805  30.3714606
  76.1529771  31.2105555  30.0377062  75.5785136  31.7184164  29.8750716
  75.0369591  40.8693018  25.8693116  74.5537169  41.5943508  25.8452700
  75.8492909  41.1669148  25.9803274  75.0860339  41.0195372  25.8820395
  77.8913788  41.3849194  26.0213396  78.5934368  40.8701183  26.0786153
  77.8111271  41.7123345  26.8260271  77.9837549  41.3563420  26.1486188
  77.6050132  25.7367624  18.0876016  77.4225705  25.9539505  17.2617009
  78.4675745  25.8506636  18.1434631  77.7054721  25.7857522  17.9730503
  77.2164564  37.5755546  25.5299004  78.0553463  37.8078479  25.5772766
  77.2476333  36.7059857  25.4606039  77.3446281  37.4812492  25.5263649
  77.8417267  37.9956421  29.8312310  78.3815492  37.8527552  30.5015682
  77.1587213  38.3953172  30.1996336  77.8209421  38.0336092  29.9846731
  73.2454412  34.2156712  29.9846731  72.9792827  33.3995829  30.1437721
  73.2592976  34.2609867  29.1142247  73.2079134  34.1013617  29.8800213
  77.1512159  29.0141796  16.5998489  76.4370336  28.7279976  17.0120922
  77.6356127  29.3538422  17.2404877  77.1171522  29.0223446  16.7554124
  77.9953018  27.7535090  32.6313739  77.3024815  27.2832070  32.8774470
  78.6113345  27.5273395  33.2055446  77.9837548  27.6502222  32.7522891
  73.6547825  35.0015491  27.2658475  73.4723399  34.9762377  26.4130768
  74.3897494  35.4714429  27.3047384  73.7361889  35.0676854  27.1456394
  76.7193577  31.7200494  33.7740584  77.4433549  31.7053525  34.2605479
  76.8209714  32.4295849  33.2762552  76.8411786  31.8225197  33.7719371
  73.6218736  31.8808992  27.4157542  74.1992238  31.7445443  28.0549787
  72.9232797  31.4244776  27.6703126  73.6039757  31.7931258  27.5479832
  69.0977569  30.7320885  24.1305361  69.1837821  30.3552753  24.9118891
  69.7253366  30.3581331  23.6525319  69.2034120  30.6206367  24.1750838
  74.6853528  39.5012618  28.1836721  74.7257673  39.7727469  27.3556501
  75.2448052  40.0254526  28.5994509  74.7736874  39.6188373  28.1228609
  76.1368114  38.0854567  23.0090647  75.3106232  38.3316304  22.8824926
  76.1980105  38.0066648  23.8752705  76.0242281  38.1099516  23.1179592
  78.3544138  24.1523508  23.9686087  77.4866563  24.2246107  24.0343697
  78.6419342  24.9545587  24.1574062  78.2683886  24.2817655  24.0060854
  78.8572859  42.6798830  23.7769827  78.6373154  42.3896184  24.5696494
  78.6367381  42.0213785  23.2487739  78.7920453  42.5398538  23.8158735
  77.7689806  34.7672146  26.0425528  77.4803054  34.1409617  26.5771256
  78.6373154  34.7092434  26.1090209  77.8550058  34.6659690  26.1316483
  77.9722079  36.4067397  21.9667894  78.7268047  36.7880436  22.1803356
  77.3792692  36.8578541  22.4214590  77.9958793  36.5296225  22.0650772
  76.2811490  27.6281767  21.4102964  75.9936285  27.2583038  20.6734911
  76.9681958  28.0976623  21.1486669  76.3400387  27.6428737  21.2618039
  76.7672778  33.8992788  31.9624508  77.2793875  34.1777041  31.3133268
  76.4809121  34.6382082  32.3287321  76.8007641  34.0495142  31.9214386
  73.8539684  28.4062980  22.2588245  73.9555821  29.2089141  22.5869220
  74.6495571  28.2050316  21.9611325  73.9867590  28.4948878  22.2623600
  74.6703416  28.5210158  30.0009366  74.5288908  27.6694099  30.1253874
  74.9543980  28.5638819  29.1771572  74.6911263  28.4009908  29.8976990
  75.4393722  26.4340506  33.3186817  74.9035911  25.8220864  33.6347584
  75.5011486  27.0088642  33.9720483  75.3689354  26.4287433  33.4622243
  77.5582478  33.8421240  23.1306871  77.7147097  33.7768042  23.9862863
  77.8983071  34.6169792  22.9185551  77.6315712  33.9470438  23.2261465
  74.1316739  31.0256190  23.4467638  74.5115704  31.4440735  22.7827906
  73.5572104  31.6069646  23.7536482  74.1028064  31.1734049  23.3944379
  77.7747541  32.5916595  28.0783133  76.9335547  32.4920469  28.2862027
  77.9837549  33.3612075  28.4297454  77.6812233  32.6908638  28.1610448
  75.2523108  30.2136132  25.9067884  74.8579805  30.2879144  25.1317993
  74.6963224  30.5994078  26.4576245  75.1125920  30.2817906  25.8735543
  77.6656348  34.9860357  29.4974766  77.0744282  35.6269855  29.4677781
  78.4277372  35.4097974  29.4706065  77.6904609  35.1436196  29.4889913
  78.0616971  26.1462355  30.1642783  78.5218453  26.2201284  30.9017907
  78.1073078  26.9443609  29.8142605  78.1367527  26.2756502  30.2215540
  74.8504749  29.7751546  32.5394500  75.7130362  29.6747255  32.4531829
  74.5196532  29.1946255  31.9780072  74.9289945  29.6743172  32.4439905
  78.2106535  28.5993995  29.2004918  77.5859605  28.6112387  28.5930870
  77.8752130  29.0754170  29.8496158  78.0692027  28.6712512  29.2061486
  78.3948284  26.9419113  15.2577603  78.0461088  27.5938838  15.7209152
  77.9144729  26.9276226  14.5301474  78.2718528  27.0362167  15.2188694
  74.9232211  36.6594455  30.6408682  74.3932135  35.9686894  30.6903657
  75.1957304  36.6504640  29.8121391  74.8856933  36.5561586  30.5256098
  77.4797280  30.2087142  31.4179786  77.6390767  29.4530467  31.8231508
  77.2990174  30.7578082  32.0720524  77.4762639  30.1780956  31.5742492
  70.2028053  33.3322219  27.9977030  70.0971502  33.2869063  27.1329114
  69.4528273  33.6775999  28.2791315  70.0763656  33.3763127  27.9114360
  78.2019932  24.7830945  35.8769940  78.8272635  24.2393078  36.1499373
  77.7470412  24.3025862  35.3077731  78.2268192  24.6320426  35.8331534
  75.3025403  32.6312595  21.3685770  75.8117632  33.2277103  21.7497076
  75.7759675  32.3638569  20.6862190  75.4468778  32.6798411  21.3240293
  77.6615934  29.2668854  24.2358951  76.9427924  29.6832986  24.5031814
  78.0328297  29.8323093  23.6850589  77.6107866  29.4118135  24.1941758
  75.4405268  28.5618407  35.2561542  75.2707859  29.2219781  34.7109749
  74.9971218  28.7724968  35.9774031  75.3504602  28.6904389  35.2823172
  72.3407333  31.4665272  30.5150032  71.7934052  30.7965918  30.6330900
  73.1299711  31.0995120  30.5793499  72.3759517  31.3130259  30.5418733
  71.0994302  30.6786080  27.6696055  70.9216064  30.2262689  28.3950971
  70.8113325  31.4812241  27.8534533  71.0307256  30.7308638  27.8039558
  72.8366772  33.2113804  24.7817814  71.9712292  33.1999494  24.6700585
  72.9365588  33.0244027  25.6288953  72.7240939  33.1819865  24.8906759
  75.8036802  36.9284811  28.0026528  76.4081660  36.8880645  27.3740349
  75.5964115  37.7755963  28.0330584  75.8625700  37.0472813  27.9142645
  71.0388085  35.9119428  27.8725451  70.9412363  35.1015700  28.1815508
  71.8216954  35.8911222  27.4871719  71.1404221  35.7886518  27.8612314
   4.6314034  22.6536022  61.1076862   4.6008039  23.5080658  61.2795131
   5.2295383  22.3531314  61.6663006   4.7151192  22.7352518  61.2151664
   2.4530609  25.2288324  59.3795172   2.3370135  25.9796010  59.8087310
   3.2486495  24.9712277  59.6291259   2.5535198  25.3023171  59.4799263
   1.1078347  22.5780762  59.1907197   0.5789819  22.7940396  59.8504503
   1.6303367  23.2716901  59.1108166   1.1066800  22.7123899  59.2762796
   6.5626400  28.1527067  64.5640241   5.7324103  28.3637710  64.7273658
   6.5135653  27.3264121  64.2882525   6.4333136  28.0616673  64.5477607
   3.8190716  28.8226421  64.7004957   3.3825947  28.8263163  65.4563928
   3.4853631  29.5031920  64.2684534   3.7053336  28.9238877  64.7485790
   6.9535062  25.5407341  63.5924594   7.6151496  24.9798009  63.4920503
   6.3126474  25.0459372  63.9177285   6.9563929  25.3843750  63.6256934
   3.2399892  26.5572723  63.3336583   3.4755482  26.7017922  62.5063434
   3.3889456  27.3215131  63.7268097   3.2965696  26.6911778  63.2700187
   5.0690349  25.3974389  61.1706187   5.3998566  25.9302029  60.5646282
   5.6423437  25.4513277  61.8268138   5.2024028  25.4843958  61.1783969
   2.5333125  27.6938356  60.8276718   3.0991158  28.3531565  60.7435261
   1.8861029  28.0388054  61.2993121   2.5211882  27.8420297  60.8849475
   3.7295823  27.7444583  57.6202355   3.3502632  26.9581721  57.6131644
   3.0662069  28.2931440  57.4773999   3.5754298  27.7089407  57.5983152
   1.9755922  29.9890074  57.9554041   2.0575760  30.7957060  57.6315492
   2.4605664  30.0086034  58.6794814   2.0593080  30.1110737  58.0140939
   6.1128842  27.5950395  59.0146501   6.4962448  28.3441751  59.2444598
   5.3172956  27.8416214  58.7558490   6.0522624  27.7420088  59.0104075
  15.6046618  38.1721330  61.1076862  15.5740622  39.0265966  61.2795131
  16.2027966  37.8716622  61.6663006  15.6883776  38.2537826  61.2151664
   8.8046303  37.2596981  65.8629792   7.9484198  37.4205479  65.9138909
   8.8513956  36.3889045  65.8834853   8.6845414  37.1547783  65.8735858
   3.1887442  46.7959699  61.6267024   2.4370342  46.4175237  61.3983069
   3.6373454  46.8278132  60.8785834   3.1437109  46.7445306  61.4824526
  12.1140019  43.5283506  75.4690248  12.8206786  43.0335537  75.5977183
  12.3027955  43.9692588  74.7392906  12.2467925  43.5201857  75.3799294
   8.6412402  47.2185068  57.0552571   8.3063771  47.8961990  56.6196793
   9.1539273  46.8290379  56.4669443   8.6677983  47.2609646  56.9039362
   8.1816693  49.1699337  62.9963683   8.5656073  49.7386235  62.4568458
   8.1175835  48.4448847  62.5169499   8.2290121  49.1474800  62.8457545
  11.6498124  39.3189025  68.5061444  12.1954084  39.9974111  68.5655414
  11.5915000  39.1776485  67.6463025  11.7214038  39.3981026  68.3873505
   4.7672198  46.8078091  63.8929796   4.8682561  45.9978445  64.2026924
   4.1713944  46.7135037  63.2629475   4.6944737  46.6743119  63.8456035
  13.4263192  40.7473632  59.3795172  13.3102718  41.4981318  59.8087310
  14.2219079  40.4897585  59.6291259  13.5267782  40.8208479  59.4799263
   4.6072938  51.7255680  65.2944652   5.2510394  52.1668844  65.6840811
   4.9329194  50.9209106  65.2074911   4.7504767  51.6720875  65.3390130
   5.3093518  44.7367655  60.6664514   5.6309359  45.2772862  60.0625822
   5.9565614  44.1664426  60.7986804   5.4519573  44.7326830  60.5971549
   7.5483161  43.1254095  60.7378692   7.9876797  42.5171195  61.1833465
   7.3987824  42.7461468  59.9664157   7.5904627  42.9792566  60.6897860
   5.0154804  41.7198106  67.9397518   5.6603807  41.2270550  67.6208466
   5.2556581  41.8622893  68.7663596   5.1465389  41.6675549  68.0147051
   7.5540896  44.5653012  67.5904410   7.8364138  43.7704418  67.3691166
   8.2827056  45.0433600  67.6109471   7.7030459  44.5187609  67.5607426
   5.5322089  32.1076046  64.8320175   5.2025419  32.5587190  64.1623874
   4.8567091  32.0292210  65.3793182   5.3832526  32.1627181  64.8143399
  11.1492498  41.4781276  57.6909462  11.0643793  42.3342243  57.8359030
  11.6376881  41.2025600  58.3591621  11.2081395  41.5638597  57.8111543
  12.7398497  28.0961569  63.0769786  12.4251938  28.7865048  63.5090208
  12.2225439  28.0406351  62.3755287  12.6162968  28.1896458  63.0366735
  12.0810931  38.0966070  59.1907197  11.5522402  38.3125704  59.8504503
  12.6035951  38.7902209  59.1108166  12.0799384  38.2309207  59.2762796
  17.5358984  43.6712375  64.5640241  16.7056687  43.8823018  64.7273658
  17.4868236  42.8449429  64.2882525  17.4065719  43.5801981  64.5477607
   3.9710539  41.9929287  57.9914665   3.3867754  42.4979318  58.3980529
   3.5680634  41.7671674  57.2511257   3.8249843  42.0337535  57.9419690
   5.5968721  46.5016229  67.3988151   5.0795663  46.1423644  66.7949459
   6.2943113  45.9778403  67.4094217   5.6234303  46.3713917  67.3118409
   9.2532313  46.9511043  73.3604324   9.3415659  46.7637183  74.2082534
   9.6822026  46.3048472  72.9609170   9.3294416  46.8274050  73.4276075
   8.4287753  38.2394939  56.4683585   8.6683757  38.4472923  55.6558928
   8.7503594  37.4352448  56.5772530   8.5124911  38.1509040  56.3644138
   3.7378043  30.1688335  60.3143123   4.4924012  30.5366652  60.0760173
   3.5605578  30.5427889  61.0822303   3.8232522  30.2786523  60.3928012
   2.3798765  48.2240224  64.9458616   3.0819344  47.7092213  65.0031373
   2.2996248  48.5514375  65.7505491   2.4722525  48.1954450  65.0731408
  17.0312942  36.3182775  68.3590663  16.1941363  36.3884962  68.5938257
  17.0001173  36.3207270  67.4864965  16.9031225  36.3293002  68.2650210
   2.0935108  32.5758654  57.0121236   1.9110681  32.7930535  56.1862229
   2.9560721  32.6897666  57.0679851   2.1939698  32.6248552  56.8975723
   1.7049540  44.4146576  64.4544224   2.5438440  44.6469509  64.5017986
   1.7361309  43.5450887  64.3851259   1.8331258  44.3203522  64.4508869
   2.3302243  44.8347451  68.7557530   2.8700468  44.6918582  69.4260902
   1.6472189  45.2344202  69.1241556   2.3094397  44.8727122  68.9091951
   7.7734827  29.5785064  60.0470260   8.5020988  29.4001019  59.6008416
   7.8629720  30.4203144  60.2577438   7.8941489  29.6768943  60.0123778
  11.7543128  40.5138452  63.9502554  12.5100643  40.9469966  63.9891463
  11.8605452  39.8643221  64.5237190  11.8813299  40.4815936  64.0400580
  14.7923299  44.3411729  64.7004957  14.3558531  44.3448471  65.4563928
  14.4586215  45.0217228  64.2684534  14.6785919  44.4424185  64.7485790
  14.7120782  31.3825557  66.9434385  15.3546690  31.4523661  67.5296300
  14.9643803  30.7154780  66.4413927  14.8442914  31.2951905  66.9561664
   1.6397135  35.8532826  55.5243709   0.9255312  35.5671006  55.9366142
   2.1241104  36.1929452  56.1650097   1.6056498  35.8614476  55.6799344
   9.5222766  48.2930164  69.6714563   8.7238012  48.0529664  69.9288431
   9.9708778  48.3444557  70.4181611   9.4697377  48.2652555  69.8199487
  17.9267645  41.0592649  63.5924594  18.5884079  40.4983317  63.4920503
  17.2859057  40.5644680  63.9177285  17.9296513  40.9029058  63.6256934
   8.8144453  44.3562780  55.9005517   9.2295602  44.0247804  55.2090013
   7.9836383  44.1231683  55.7725654   8.7532462  44.2734036  55.7796365
  14.2132476  42.0758031  63.3336583  14.4488065  42.2203230  62.5063434
  14.3622040  42.8400439  63.7268097  14.2698279  42.2097086  63.2700187
  16.0422933  40.9159697  61.1706187  16.3731150  41.4487337  60.5646282
  16.6156021  40.9698585  61.8268138  16.1756612  41.0029266  61.1783969
  11.2554822  38.7624600  61.8529767  11.3501676  39.5013894  62.3069392
  10.6313665  38.3342075  62.2864331  11.1763852  38.8085921  61.9837914
   9.5107296  41.9410813  72.5020048  10.0846157  41.3038057  72.6568612
   9.4322099  41.9414895  71.6329705   9.5840531  41.8475924  72.3966459
  11.5077843  40.6073340  55.0866719  11.4258006  40.6775527  55.9521706
  12.1457564  41.1703084  54.8950460  11.5897681  40.7012311  55.1856668
   4.8671014  40.3734078  64.5541245   4.6090259  39.5405813  64.5272545
   4.9219497  40.5991691  63.7133746   4.8370792  40.2831849  64.4261382
   9.9472065  32.4762528  64.6545338   9.2428391  31.9871714  64.8129257
   9.9957039  32.4885003  63.7833782   9.8502116  32.4052176  64.5484678
   3.8405727  37.9271840  65.0406140   3.2655318  38.0864008  65.6770101
   3.4641403  37.2907249  64.5774591   3.7008539  37.8569653  65.0660698
   7.5079015  36.3995189  69.8998518   7.1193448  35.9749407  69.2450710
   6.8433714  36.6477339  70.4075545   7.3525943  36.3733911  69.8786386
  17.1502284  36.1570194  62.6746348  16.8938849  35.3450136  62.4844231
  17.9931598  36.1647761  62.4476536  17.2368310  36.0382192  62.6131166
  11.3305377  30.0969818  67.4122503  11.7115888  29.4147989  67.7990377
  10.5268661  29.8079420  67.2298167  11.2681838  29.9536867  67.4426559
   8.6117953  40.6293794  58.0975325   9.4258592  40.9208687  57.9858097
   8.5477095  39.9753656  57.5233618   8.7220692  40.5758989  57.9964163
  14.8327444  43.3119790  72.5104901  14.5966081  42.4807855  72.3916962
  15.4770673  43.2605397  73.0959745  14.8922114  43.1817478  72.5790795
   4.4825862  44.1015311  63.2247637   5.1199809  43.8627059  63.7699431
   4.9080933  44.3052470  62.4900798   4.6402028  44.0966322  63.1964795
   5.1228677  39.3217601  57.5622527   5.5073829  39.1025308  58.3139072
   4.8740297  40.1480547  57.6923603   5.1430749  39.4115747  57.6923603
  15.8563864  43.0964239  68.5733196  15.5509681  43.8292296  68.9346511
  15.1370080  42.6902168  68.2925982  15.7051207  43.1445972  68.5846333
   6.8647334  44.5787734  64.9041424   6.9386342  44.4162906  65.7583274
   7.6816840  44.7677924  64.6601905   6.9963692  44.5824476  64.9939449
  21.5565656  39.7357240  67.9001540  21.4890157  39.7553199  67.0304126
  21.5421319  40.5787567  68.1257210  21.5444413  39.8630974  67.8054017
   2.8429114  30.9914538  62.8931307   1.9751540  31.0637137  62.9588917
   3.1304318  31.7936617  63.0819282   2.7568862  31.1208685  62.9306074
  11.9662003  31.1392397  71.2242629  12.7115595  30.9502208  70.8106055
  11.5499307  31.6650635  70.6656486  12.0146977  31.1894543  71.0807202
   5.4051919  47.5422477  59.6354897   5.6950218  47.1511458  58.9114124
   6.1355400  47.7239182  60.0760172   5.5558804  47.5116291  59.5937704
  19.3424274  38.5101626  66.1748134  19.8932195  37.8769695  66.4145226
  19.3268389  39.0417019  66.8663638  19.4209470  38.4950574  66.3126992
   5.9946665  42.3440223  70.7208028   5.4958358  43.0555991  70.7992916
   6.8046889  42.6640890  70.6826190   6.0402771  42.4967072  70.7264596
   3.3457835  49.5189860  62.7015047   3.1258130  49.2287214  63.4941714
   3.1252357  48.8604815  62.1732959   3.2805429  49.3789568  62.7403956
   2.2574782  41.6063176  64.9670748   1.9688031  40.9800647  65.5016476
   3.1258130  41.5483463  65.0335429   2.3435034  41.5050720  65.0561703
  13.0452680  36.7497959  65.2852730  12.7017446  36.0288295  65.6359980
  13.1445722  36.5411811  64.4431089  13.0094723  36.6122163  65.2124410
   5.5125791  50.8919249  61.4845739   6.1649849  50.3595692  61.7136765
   4.8151399  50.5387902  61.8713613   5.5056509  50.7608772  61.5757907
   2.4607055  43.2458427  60.8913114   3.2153023  43.6271466  61.1048576
   1.8677668  43.6969571  61.3459810   2.4843769  43.3687254  60.9895992
  13.5065709  43.2123664  60.8276718  14.0723742  43.8716873  60.7435261
  12.8593612  43.5573362  61.2993121  13.4944465  43.3605605  60.8849475
   3.7805282  44.4166988  66.2653229   3.2586036  44.5567280  66.9505094
   4.1679302  43.6577653  66.4555346   3.7608983  44.3252512  66.3954305
   9.9772287  46.1562448  60.2513798   9.7358963  45.4230308  59.8440863
  10.1573620  46.7049305  59.5980131   9.9679911  46.1284839  60.0944021
   5.2071608  41.4471007  61.6634720   5.0114390  42.0545742  61.0695023
   5.4305953  40.7538951  61.1826394   5.2106249  41.4348533  61.5050801
   3.6050138  38.3325745  61.7815588   4.3272790  38.4966904  61.3219394
   3.1258131  39.0535410  61.6754928   3.6413868  38.4623975  61.6981202
  11.5643645  34.6689544  67.1612273  10.7254746  34.6950823  66.9250537
  11.6348013  35.3160280  67.7417620  11.4512039  34.7685670  67.2121390
  10.0112924  31.5674921  61.8939889  10.7139276  31.3682670  61.4159847
   9.7457112  30.7950864  62.2008733  10.0759556  31.4237887  61.8685331
  15.4401169  39.8757531  64.4473515  15.3535144  40.0312957  65.3008294
  14.9851649  40.5195606  64.0732920  15.3604426  39.9933286  64.5180622
   9.3126985  37.1968278  63.0699075   9.0661699  37.1164029  63.9035863
   9.6412108  36.4121746  62.8761602   9.3248229  37.0694543  63.1646598
  13.2075034  43.9051637  66.8585856  13.0689393  44.6032683  67.3634598
  12.4275032  43.7500294  66.5022038  13.0718261  43.9851804  66.8812130
  11.5453119  40.2048013  73.1108237  11.5401158  39.3327829  73.1150664
  12.2514113  40.4036182  72.6377693  11.6498123  40.1051887  73.0415273
   5.2724012  39.9324997  72.4822058   5.4167388  40.5126205  71.8465168
   5.6199661  40.3101293  73.1871912   5.3451474  40.0745701  72.4921053
   7.4443930  39.1315165  70.2647189   6.6967244  39.3246179  69.8595467
   7.5985455  38.3060385  70.0271310   7.3566357  39.0380276  70.1692595
   4.3451767  48.1227768  69.3483084   4.4941331  47.5630684  68.6956489
   5.1251770  48.2019770  69.7315603   4.4825861  48.0513334  69.3080034
  14.7028407  43.2629891  57.6202355  14.3235216  42.4767029  57.6131644
  14.0394652  43.8116748  57.4773999  14.5486882  43.2274715  57.5983152
   6.8705068  48.2942411  70.6267575   6.7948739  47.6251222  71.1818364
   6.7994927  48.9960200  71.1408241   6.8485675  48.2987319  70.7844423
  12.1573033  26.2055591  65.0236436  12.2756601  26.6632054  64.2903739
  11.9835209  25.4000852  64.7372653  12.1492204  26.1549363  64.8737369
   7.5275315  46.8143410  61.4591181   8.2925206  46.5453054  61.1373845
   7.4253405  46.3293421  62.1761244   7.6256811  46.7032975  61.5171009
   5.5628085  35.0167820  67.9984417   4.7724160  34.8359280  68.3201753
   5.9588708  34.2394772  67.9814711   5.5044961  34.8755281  68.0436965
  10.0493976  43.8455594  53.4391131  10.8166961  43.9055719  53.0296982
   9.6025285  43.2736035  52.9547449  10.0967403  43.7692170  53.3068841
  10.9471771  42.6510250  65.7243863  10.2716773  42.4195482  66.2257250
  10.9564147  42.0431433  65.0985968  10.8490276  42.5269175  65.7060015
   8.0765915  37.4928079  72.4807916   8.0125056  38.3538035  72.3528053
   8.2163103  37.1760072  71.6803467   8.0881385  37.5728245  72.3436129
  12.9488506  45.5075382  57.9554041  13.0308343  46.3142368  57.6315492
  13.4338248  45.5271341  58.6794814  13.0325664  45.6296045  58.0140939
   6.7585009  40.1860218  66.6224119   6.3347258  40.3864717  65.8863137
   6.5829864  39.3389066  66.7348419   6.6695890  40.0909000  66.5297809
   2.0467454  40.6812270  62.0552091   2.2032073  40.6159072  62.9108083
   2.3868047  41.4560822  61.8430771   2.1200689  40.7861468  62.1506685
   8.5846599  40.0570153  60.9245455   9.1262144  39.5540534  61.3884075
   8.8993158  40.0035348  60.1134940   8.7110996  39.9749574  60.8729267
  12.4563706  44.2672800  78.0372367  13.2698571  43.9957949  78.1977499
  12.2958672  43.9680340  77.2332563  12.5533654  44.1827727  77.9417773
   6.7533048  45.4487505  58.2085483   6.8225869  44.5902043  58.3478483
   7.5321503  45.6659386  57.8804507   6.8785898  45.3540369  58.1802640
   9.7335868  34.9506458  70.9767755   9.9477837  34.3117372  70.4231109
   9.1169767  35.3952282  70.5475617   9.6741197  34.9216601  70.8318186
  11.1440536  47.8725206  62.4221976  10.7520328  47.5691921  61.7044842
  11.2993608  48.7094296  62.2326930  11.1094126  47.9509043  62.2878473
  11.8974956  36.5595523  71.9151062  11.0851638  36.2521413  71.9964235
  12.3564891  36.0794523  72.4793774  11.8455341  36.4432015  72.0105656
  11.3080211  44.4375195  62.3628006  10.9494865  44.6089838  63.1392039
  10.8218921  44.8988400  61.8056005  11.1838908  44.5314166  62.3953275
   9.1250597  28.0606393  65.9655098   8.2544155  28.0345114  65.9188407
   9.3790938  27.8883586  65.1480943   9.0344157  28.0316537  65.8375235
   6.0968576  40.1174360  54.9028241   6.3861101  40.8939243  55.1771815
   6.1840375  39.6063092  55.6042740   6.1522832  40.1566279  55.0470739
   6.1499737  30.0712622  67.4228568   5.6338226  29.3792813  67.5480147
   5.5893666  30.7383399  67.3691167   5.9906250  30.0675879  67.4334634
  12.4684950  45.3279091  73.3095207  13.1064670  44.8339286  72.9757663
  11.8259042  45.2556491  72.7247434  12.4679176  45.2438099  73.1737562
  14.1941950  37.1768237  67.8761123  13.7669558  37.0894585  67.1209222
  13.5568003  37.2846012  68.4615967  14.0371557  37.1800897  67.8506564
  12.5239207  46.0198899  69.9500564  13.3131585  45.6687964  70.0702646
  12.6982804  46.8335287  69.6877198  12.6659488  46.0884756  69.9288432
   2.2632517  39.4307625  67.0028353   1.4220524  39.3311499  67.2107247
   2.4722525  40.2003105  67.3542674   2.1697210  39.5299668  67.0855668
  11.3773031  30.0308456  64.5116982  11.5822624  29.9630764  65.3573980
  11.0499455  30.8367277  64.4438160  11.3588279  30.1394396  64.6276638
   6.0749182  37.3589024  66.2525950   5.7712319  36.8045012  66.8536358
   5.3728603  37.5381234  65.7653985   5.9265392  37.3033806  66.2695656
   5.1315279  34.6689544  60.8170652   5.4075013  33.9508456  60.4048220
   5.7313948  35.2674464  60.6091758   5.2608544  34.6509915  60.7251413
  14.6306718  30.5840220  63.9919748  14.0181032  31.0710622  64.3773480
  14.7270893  29.9083711  64.5357399  14.5544616  30.5558529  64.1298606
   8.6325799  32.3403061  59.0917247   9.0869546  32.5113622  59.8165092
   9.1065845  31.7271172  58.6915023   8.7694120  32.2753946  59.1391009
   2.1541325  41.8251387  68.4219986   1.5629258  42.4660885  68.3923001
   2.9162348  42.2489004  68.3951285   2.1789585  41.9827226  68.4135133
  18.2731746  41.6557157  69.4197264  18.3314870  42.1043806  70.1657241
  17.6398214  42.0655970  68.9827344  18.1883042  41.7830891  69.4649812
  11.9130841  47.2760699  65.8552010  11.7150530  47.7651513  65.1608222
  11.2918552  47.4801940  66.4336144  11.7918406  47.3777237  65.8375233
   5.9738819  39.0445596  60.1962254   6.7180864  39.4319872  60.4345204
   6.1199516  38.2003021  60.3602742   6.1049405  38.9776068  60.2556224
   7.8918395  30.8395854  65.2294116   7.0454440  31.0118662  65.1035466
   7.8889527  30.0345198  65.5659944   7.7665545  30.7456883  65.2605243
   8.9616695  34.6171069  66.0956174   8.4876650  34.0912831  66.6061485
   9.3334831  34.0700542  65.5271035   8.9466584  34.4587065  66.0871321
  15.2253426  39.6773444  67.5062954  14.9851649  38.8379860  67.5105381
  15.7045433  39.7573611  68.2303728  15.2605610  39.5654844  67.6137757
  10.8900195  35.5107623  59.1581928  10.3623214  35.5936367  58.4687636
  11.3495903  36.2525495  59.1546572  10.8802045  35.6328286  59.0556623
  17.2258613  36.4574902  65.4592213  16.9868383  36.4170736  64.6212998
  17.3892514  37.3046054  65.5857935  17.2148916  36.5766987  65.3545695
  13.8304643  40.8424851  71.3897259  14.5538842  40.3897377  71.2108279
  13.5654605  41.1229517  70.6069586  13.8985916  40.8175820  71.2475974
   2.6991511  35.4385025  68.1250138   2.0744582  35.4503417  67.5176090
   2.3637106  35.9145200  68.7741378   2.5577003  35.5103542  68.1306706
   2.8833260  33.7810143  54.1822823   2.5346064  34.4329868  54.6454372
   2.4029706  33.7667256  53.4546694   2.7603504  33.8753197  54.1433914
  10.4437277  44.0811187  58.2891585  11.1671476  44.5469300  58.1456158
  10.0037868  44.1484797  57.5389182  10.4852970  44.1595024  58.1576366
   9.6123433  40.9408729  69.5392274   8.9980426  40.3966780  69.8340909
  10.1290717  40.4272966  69.0598090   9.5979095  40.7845138  69.5116502
   8.8519730  42.0112999  67.2736572   8.4247338  41.3862718  66.8402008
   8.8444674  41.7287921  68.0995579   8.7878871  41.8765780  67.3316400
   7.1805439  32.8881754  67.4879106   7.2047927  32.3541866  66.7991886
   7.4316913  32.3799063  68.1504697   7.2215358  32.7342658  67.4843751
   3.4606762  31.6152572  66.8684851   3.5005133  32.1161779  67.5819558
   2.6356426  31.7062966  66.5990774   3.3446288  31.7034388  66.9335389
   4.8821125  38.1313082  69.1658750   4.0513055  38.2986900  68.9593998
   4.8272642  37.7549033  69.9507635   4.7510540  38.1002813  69.2507278
   3.2557169  36.4068673  59.6948867   3.3960130  36.9041138  60.3977509
   3.7539702  35.7054968  59.8363081   3.3498250  36.3770652  59.8200446
   3.2857391  37.2735784  57.0241444   3.9202471  37.8696209  56.9590906
   3.3683002  36.9739242  57.8387314   3.3913942  37.3176693  57.1344531
  16.2639957  39.8051262  69.8927808  16.8557797  40.4448513  69.9246006
  16.6998951  39.1074299  70.1819875  16.4158388  39.7969612  69.9408641
   4.8636374  33.2049760  56.9986886   5.1852215  32.7252842  56.3446148
   5.1263318  34.0149406  56.8077698   4.9502399  33.2539658  56.8742378
   8.0933347  44.2268634  70.5185702   7.5858438  44.7804481  70.9626333
   7.7959993  44.2876924  69.7004477   7.9738232  44.3174945  70.4634159
  10.2595529  32.5921954  69.3610365  10.6850601  32.1394480  68.7493892
   9.6452522  32.0382025  69.6375153  10.2324174  32.4435930  69.3115390
  10.7041127  48.1431892  58.4489646   9.9870437  47.9692754  57.9836883
  11.3547865  47.9084464  57.9165132  10.6942978  48.0827684  58.3018864
   8.6989752  29.0637054  62.7700942   8.0558070  28.9134700  63.3386081
   8.3589159  28.8179399  62.0050047   8.5534829  29.0049176  62.7403957
  13.2889098  37.0196480  62.1930951  12.6180288  37.5626183  62.0644016
  13.9828849  37.4891336  61.9512646  13.2917966  37.1694752  62.1386479
   7.3375832  49.1593192  67.4242709   7.1141487  48.4012022  67.7926735
   6.8485675  49.1891214  66.7023149   7.2319281  49.0515417  67.3719450
  13.4517226  33.4752364  65.1021324  13.8044836  33.0482087  65.7767123
  12.5932027  33.3903208  65.2322400  13.3766670  33.3997105  65.2216334
   2.1500911  36.1059884  63.1604171   1.4312900  36.5224016  63.4277034
   2.5213273  36.6714123  62.6095809   2.0992843  36.2509165  63.1186978
  11.4500492  36.7387733  69.0506166  11.4298419  36.5571028  69.9040945
  11.4979692  37.6099751  69.0265750  11.4535133  36.8404271  69.1729461
   9.3946821  43.3274925  74.9754643   9.3542676  42.6824602  74.3899799
  10.2070140  43.2711542  75.2880055   9.5089975  43.2233892  74.9351592
   5.9854289  49.3793651  64.8779794   5.5714688  48.7167781  64.4883635
   6.6701663  49.5271509  64.3575488   6.0252661  49.3034309  64.7436291
   9.3519583  48.5383736  65.6303410   8.9535866  48.6486006  64.8624231
   8.7370803  48.7465802  66.2129970   9.2018472  48.5857304  65.6034710
   7.9247485  35.1457884  58.4977550   7.3312324  35.4674880  57.9462117
   7.9622763  34.2998979  58.2898656   7.8421874  35.0682212  58.3860321
  14.8841286  28.5970776  66.0305637  14.3772151  27.8899915  65.9626814
  15.6808720  28.2663965  66.1606713  14.9268525  28.4443927  66.0404631
  10.8005302  35.1037388  61.9279300  10.5718995  35.1270090  61.0857658
  11.0603378  34.2794855  62.0474311  10.8051490  34.9853468  61.8204498
   3.8550064  33.6413934  63.2233496   4.3307431  34.0031014  62.5883677
   3.3538664  34.2970402  63.5033639   3.8515423  33.7908123  63.1710237
  17.0861426  43.1135703  59.0146501  17.4695032  43.8627059  59.2444598
  16.2905539  43.3601522  58.7558490  17.0255208  43.2605396  59.0104075
   5.8976717  35.7855134  56.5906880   6.2775682  35.8034763  55.8057995
   5.1569313  36.2309123  56.4697727   5.8445555  35.8536909  56.4570448
  13.5262008  34.0937325  62.1782459  13.5256234  33.9385982  63.0366735
  13.3218188  34.9400313  62.1223844  13.4961786  34.1957946  62.2970398
  11.2502860  38.7734827  65.8318665  11.7456525  38.0557822  65.7922686
  10.4402636  38.4705625  65.7173152  11.2046753  38.6232474  65.8092391
   6.6961472  42.6232640  57.9815670   5.8872794  42.2999314  57.9348979
   7.2036380  41.9165863  57.9143919   6.6511138  42.4713957  57.9645964
  13.3154679  41.5238515  68.5195794  13.7409750  41.0012937  67.9666219
  12.9511599  42.1219352  67.9984417  13.3241281  41.5348742  68.3604804
   2.9508759  49.8202732  67.2793140   3.2655318  50.6339121  67.2870921
   3.3602172  49.4352951  67.9475299   3.0576857  49.8831435  67.3797231
   9.9033278  45.2372779  64.8496952  10.3744456  45.9513042  65.0186937
  10.2393457  44.6371529  65.3856821  10.0228393  45.2544243  64.9529328
  10.5407225  45.0290713  71.6124644   9.9928171  44.4048597  71.3444710
  11.0020253  45.2184985  70.8968724  10.5274434  44.9649763  71.4675075
  13.3501089  33.0976068  68.9975837  12.7664078  33.5985274  68.5853404
  13.6705383  32.5905624  68.3640160  13.3114264  33.0967903  68.8434344
   5.8895888  32.0116662  59.2734511   6.7111582  32.1814975  59.0316206
   5.4265539  32.1663923  58.5500809   5.9427050  32.0598395  59.1306156
  10.1065551  46.0341786  68.1433986  10.9263925  45.8904752  68.4050281
   9.8259629  46.6587985  68.6850423  10.1862294  46.1052138  68.2621925
  26.5779201  53.6906638  61.1076862  26.5473206  54.5451274  61.2795131
  27.1760550  53.3901930  61.6663006  26.6616359  53.7723134  61.2151664
  19.7778886  52.7782289  65.8629792  18.9216782  52.9390787  65.9138909
  19.8246540  51.9074353  65.8834853  19.6577998  52.6733090  65.8735858
  14.1620026  62.3145006  61.6267024  13.4102925  61.9360545  61.3983069
  14.6106038  62.3463440  60.8785834  14.1169693  62.2630614  61.4824526
  23.0872603  59.0468814  75.4690248  23.7939370  58.5520845  75.5977183
  23.2760538  59.4877896  74.7392906  23.2200508  59.0387165  75.3799294
  19.6144986  62.7370376  57.0552571  19.2796354  63.4147298  56.6196793
  20.1271856  62.3475687  56.4669443  19.6410567  62.7794954  56.9039362
  19.1549277  64.6884645  62.9963683  19.5388656  65.2571543  62.4568458
  19.0908418  63.9634155  62.5169499  19.2022704  64.6660108  62.8457545
  22.6230707  54.8374333  68.5061444  23.1686667  55.5159419  68.5655414
  22.5647583  54.6961793  67.6463025  22.6946622  54.9166334  68.3873505
  15.7404782  62.3263399  63.8929796  15.8415145  61.5163753  64.2026924
  15.1446527  62.2320345  63.2629475  15.6677321  62.1928427  63.8456035
  24.3995776  56.2658940  59.3795172  24.2835302  57.0166626  59.8087310
  25.1951663  56.0082893  59.6291259  24.5000365  56.3393787  59.4799263
  15.5805522  67.2440988  65.2944652  16.2242977  67.6854152  65.6840811
  15.9061777  66.4394414  65.2074911  15.7237350  67.1906183  65.3390130
   8.9369826  58.3483685  63.5182130   8.7020011  57.5151338  63.4114399
   9.0755467  58.6288351  62.7043331   8.9225489  58.2667189  63.3824485
  11.2359914  50.5169416  66.4166438  10.6164945  49.9262063  66.2476453
  11.1343777  51.1080851  65.7830761  11.1297589  50.5173498  66.2971427
  16.2826101  60.2552963  60.6664514  16.6041942  60.7958170  60.0625822
  16.9298198  59.6849734  60.7986804  16.4252157  60.2512138  60.5971549
  18.3327809  52.2568958  60.7498901  19.0307974  52.4357085  61.2420364
  18.6480142  51.7339297  60.1269290  18.4823147  52.2062730  60.7300911
  10.9629047  54.0621697  68.6610007  10.8387744  54.6484143  69.2959826
  11.6147331  53.5681893  68.9622282  11.0402696  54.0760502  68.7995936
  18.5215745  58.6439403  60.7378692  18.9609380  58.0356503  61.1833465
  18.3720408  58.2646776  59.9664157  18.5637211  58.4977874  60.6897860
  15.9887388  57.2383414  67.9397518  16.6336390  56.7455858  67.6208466
  16.2289165  57.3808201  68.7663596  16.1197973  57.1860857  68.0147051
  18.5273479  60.0838320  67.5904410  18.8096722  59.2889726  67.3691166
  19.2559640  60.5618908  67.6109471  18.6763043  60.0372917  67.5607426
  16.5054673  47.6261354  64.8320175  16.1758003  48.0772498  64.1623874
  15.8299675  47.5477518  65.3793182  16.3565109  47.6812489  64.8143399
  22.1225081  56.9966584  57.6909462  22.0376376  57.8527551  57.8359030
  22.6109465  56.7210908  58.3591621  22.1813979  57.0823905  57.8111543
  23.7131081  43.6146877  63.0769786  23.3984522  44.3050356  63.5090208
  23.1958022  43.5591659  62.3755287  23.5895551  43.7081766  63.0366735
  23.0543515  53.6151378  59.1907197  22.5254986  53.8311012  59.8504503
  23.5768535  54.3087517  59.1108166  23.0531968  53.7494515  59.2762796
  28.5091568  59.1897682  64.5640241  27.6789271  59.4008326  64.7273658
  28.4600820  58.3634737  64.2882525  28.3798303  59.0987289  64.5477607
  14.9443122  57.5114595  57.9914665  14.3600338  58.0164626  58.3980529
  14.5413218  57.2856982  57.2511257  14.7982426  57.5522843  57.9419690
  10.4987151  63.2269356  64.7938336  10.0154729  63.9519846  64.7697920
  11.3110469  63.5245486  64.9048494  10.5477899  63.3771710  64.8065615
  16.5701305  62.0201537  67.3988151  16.0528247  61.6608952  66.7949459
  17.2675696  61.4963711  67.4094217  16.5966886  61.8899225  67.3118409
  20.2264897  62.4696351  73.3604324  20.3148243  62.2822491  74.2082534
  20.6554610  61.8233780  72.9609170  20.3026999  62.3459358  73.4276075
  19.4020337  53.7580247  56.4683585  19.6416341  53.9658231  55.6558928
  19.7236178  52.9537756  56.5772530  19.4857495  53.6694348  56.3644138
  14.7110627  45.6873643  60.3143123  15.4656595  46.0551960  60.0760173
  14.5338162  46.0613197  61.0822303  14.7965105  45.7971831  60.3928012
  13.3531348  63.7425532  64.9458616  14.0551928  63.2277521  65.0031373
  13.2728831  64.0699683  65.7505491  13.4455109  63.7139758  65.0731408
  28.0045526  51.8368083  68.3590663  27.1673947  51.9070270  68.5938257
  27.9733757  51.8392578  67.4864965  27.8763808  51.8478310  68.2650210
  14.4010255  53.9801119  74.0739031  14.5730759  53.8707013  74.9224313
  14.9379612  54.6255524  73.8370223  14.5055259  54.0593120  74.1644128
  13.0667692  48.0943962  57.0121236  12.8843265  48.3115842  56.1862229
  13.9293305  48.2082974  57.0679851  13.1672281  48.1433860  56.8975723
  12.6782124  59.9331884  64.4544224  13.5171023  60.1654817  64.5017986
  12.7093893  59.0636195  64.3851259  12.8063841  59.8388830  64.4508869
  13.3034827  60.3532759  68.7557530  13.8433052  60.2103890  69.4260902
  12.6204773  60.7529510  69.1241556  13.2826981  60.3912430  68.9091951
  18.7467411  45.0970372  60.0470260  19.4753571  44.9186327  59.6008416
  18.8362304  45.9388452  60.2577438  18.8674073  45.1954251  60.0123778
  22.7275712  56.0323760  63.9502554  23.4833227  56.4655274  63.9891463
  22.8338036  55.3828529  64.5237190  22.8545882  56.0001244  64.0400580
  25.7655883  59.8597037  64.7004957  25.3291115  59.8633779  65.4563928
  25.4318798  60.5402536  64.2684534  25.6518503  59.9609493  64.7485790
  25.6853366  46.9010865  66.9434385  26.3279274  46.9708969  67.5296300
  25.9376386  46.2340088  66.4413927  25.8175498  46.8137213  66.9561664
  12.6129719  51.3718134  55.5243709  11.8987896  51.0856314  55.9366142
  13.0973687  51.7114760  56.1650097  12.5789082  51.3799784  55.6799344
  13.4570578  50.1111428  71.5558959  12.7642375  49.6408408  71.8019690
  14.0730905  49.8849733  72.1300666  13.4455108  50.0078560  71.6768111
  20.4955350  63.8115472  69.6714563  19.6970595  63.5714972  69.9288431
  20.9441361  63.8629865  70.4181611  20.4429961  63.7837863  69.8199487
  28.9000229  56.5777957  63.5924594  29.5616663  56.0168625  63.4920503
  28.2591641  56.0829988  63.9177285  28.9029096  56.4214366  63.6256934
  19.7877037  59.8748088  55.9005517  20.2028185  59.5433112  55.2090013
  18.9568966  59.6416990  55.7725654  19.7265045  59.7919344  55.7796365
   9.1165385  57.3591829  66.1903695   8.9340959  57.3338715  65.3375988
   9.8515054  57.8290767  66.2292604   9.1979449  57.4253191  66.0701614
  25.1865060  57.5943339  63.3336583  25.4220649  57.7388538  62.5063434
  25.3354623  58.3585747  63.7268097  25.2430863  57.7282394  63.2700187
  12.1811137  54.0776832  72.6985804  12.9051109  54.0629863  73.1850699
  12.2827274  54.7872187  72.2007772  12.3029346  54.1801535  72.6964591
  27.0155516  56.4345005  61.1706187  27.3463733  56.9672645  60.5646282
  27.5888604  56.4883893  61.8268138  27.1489195  56.5214574  61.1783969
  22.2287405  54.2809908  61.8529767  22.3234260  55.0199202  62.3069392
  21.6046249  53.8527383  62.2864331  22.1496436  54.3271228  61.9837914
  20.4839879  57.4596120  72.5020048  21.0578741  56.8223365  72.6568612
  20.4054683  57.4600203  71.6329705  20.5573114  57.3661232  72.3966459
   9.0836296  54.2385330  66.3402762   9.6609798  54.1021781  66.9795007
   8.3850357  53.7821114  66.5948346   9.0657317  54.1507596  66.4725052
  22.4810427  56.1258648  55.0866719  22.3990589  56.1960835  55.9521706
  23.1190147  56.6888392  54.8950460  22.5630264  56.2197619  55.1856668
  15.8403598  55.8919386  64.5541245  15.5822842  55.0591120  64.5272545
  15.8952081  56.1176999  63.7133746  15.8103376  55.8017157  64.4261382
  20.9204648  47.9947836  64.6545338  20.2160975  47.5057022  64.8129257
  20.9689622  48.0070311  63.7833782  20.8234700  47.9237484  64.5484678
  14.8138310  53.4457148  65.0406140  14.2387901  53.6049316  65.6770101
  14.4373986  52.8092557  64.5774591  14.6741122  53.3754961  65.0660698
  18.4811599  51.9180497  69.8998518  18.0926031  51.4934715  69.2450710
  17.8166297  52.1662647  70.4075545  18.3258527  51.8919218  69.8786386
  28.1234868  51.6755502  62.6746348  27.8671433  50.8635444  62.4844231
  28.9664182  51.6833069  62.4476536  28.2100893  51.5567499  62.6131166
   4.5595129  53.0897223  63.0550581   4.6455381  52.7129091  63.8364111
   5.1870926  52.7157668  62.5770539   4.6651680  52.9782705  63.0996058
  22.3037960  45.6155126  67.4122503  22.6848472  44.9333297  67.7990377
  21.5001245  45.3264728  67.2298167  22.2414422  45.4722175  67.4426559
  19.5850537  56.1479102  58.0975325  20.3991176  56.4393995  57.9858097
  19.5209678  55.4938964  57.5233618  19.6953276  56.0944297  57.9964163
  25.8060027  58.8305098  72.5104901  25.5698665  57.9993163  72.3916962
  26.4503256  58.7790705  73.0959745  25.8654698  58.7002786  72.5790795
  15.4558445  59.6200619  63.2247637  16.0932392  59.3812367  63.7699431
  15.8813517  59.8237778  62.4900798  15.6134612  59.6151630  63.1964795
  16.0961260  54.8402909  57.5622527  16.4806413  54.6210616  58.3139072
  15.8472881  55.6665855  57.6923603  16.1163333  54.9301055  57.6923603
  16.2629801  48.1209324  77.2785111  15.9483242  48.8908887  77.0154674
  15.9419733  47.5579580  76.6937338  16.1688720  48.1519593  77.1526461
  26.8296448  58.6149547  68.5733196  26.5242265  59.3477604  68.9346511
  26.1102663  58.2087476  68.2925982  26.6783790  58.6631280  68.5846333
  17.8379917  60.0973042  64.9041424  17.9118925  59.9348214  65.7583274
  18.6549424  60.2863232  64.6601905  17.9696276  60.1009784  64.9939449
  32.5298240  55.2542548  67.9001540  32.4622740  55.2738507  67.0304126
  32.5153902  56.0972875  68.1257210  32.5176996  55.3816282  67.8054017
  11.5985674  60.4430905  61.9335867  10.7723792  60.6892642  61.8070146
  11.6597665  60.3642986  62.7997925  11.4859841  60.4675854  62.0424812
  13.8161698  46.5099846  62.8931307  12.9484123  46.5822445  62.9588917
  14.1036902  47.3121925  63.0819282  13.7301446  46.6393993  62.9306074
  22.9394586  46.6577705  71.2242629  23.6848178  46.4687516  70.8106055
  22.5231891  47.1835943  70.6656486  22.9879561  46.7079851  71.0807202
  16.3784503  63.0607785  59.6354897  16.6682801  62.6696766  58.9114124
  17.1087984  63.2424490  60.0760172  16.5291387  63.0301599  59.5937704
  30.3156857  54.0286934  66.1748134  30.8664779  53.3955003  66.4145226
  30.3000973  54.5602326  66.8663638  30.3942054  54.0135882  66.3126992
  16.9679248  57.8625531  70.7208028  16.4690942  58.5741299  70.7992916
  17.7779472  58.1826198  70.6826190  17.0135355  58.0152380  70.7264596
  14.3190419  65.0375167  62.7015047  14.0990714  64.7472522  63.4941714
  14.0984941  64.3790123  62.1732959  14.2538013  64.8974876  62.7403956
  13.2307366  57.1248484  64.9670748  12.9420614  56.4985955  65.5016476
  14.0990714  57.0668771  65.0335429  13.3167618  57.0236028  65.0561703
  24.0185263  52.2683267  65.2852730  23.6750029  51.5473603  65.6359980
  24.1178306  52.0597119  64.4431089  23.9827306  52.1307471  65.2124410
  16.4858374  66.4104557  61.4845739  17.1382432  65.8781000  61.7136765
  15.7883983  66.0573210  61.8713613  16.4789092  66.2794080  61.5757907
  13.4339639  58.7643735  60.8913114  14.1885607  59.1456774  61.1048576
  12.8410252  59.2154879  61.3459810  13.4576353  58.8872562  60.9895992
  24.4798293  58.7308971  60.8276718  25.0456325  59.3902181  60.7435261
  23.8326196  59.0758670  61.2993121  24.4677049  58.8790913  60.8849475
  15.8946306  50.7206575  76.0170326  15.0846082  51.0264355  75.9060168
  16.3720993  51.4412158  76.1322910  15.8449785  50.8721177  76.0177397
  14.7537866  59.9352296  66.2653229  14.2318619  60.0752588  66.9505094
  15.1411886  59.1762961  66.4555346  14.7341567  59.8437820  66.3954305
  11.7429050  49.9858105  60.3348184  11.4553845  49.6159376  59.5980131
  12.4299518  50.4552960  60.0731889  11.8017947  50.0005074  60.1863259
  20.9504871  61.6747756  60.2513798  20.7091547  60.9415616  59.8440863
  21.1306204  62.2234613  59.5980131  20.9412495  61.6470147  60.0944021
  16.1804191  56.9656315  61.6634720  15.9846974  57.5731050  61.0695023
  16.4038537  56.2724259  61.1826394  16.1838832  56.9533841  61.5050801
  14.5782721  53.8511053  61.7815588  15.3005373  54.0152211  61.3219394
  14.0990714  54.5720718  61.6754928  14.6146452  53.9809283  61.6981202
  22.5376229  50.1874852  67.1612273  21.6987330  50.2136131  66.9250537
  22.6080596  50.8345588  67.7417620  22.4244622  50.2870978  67.2121390
  20.9845507  47.0860229  61.8939889  21.6871860  46.8867977  61.4159847
  20.7189696  46.3136172  62.2008733  21.0492139  46.9423195  61.8685331
  26.4133753  55.3942839  64.4473515  26.3267727  55.5498265  65.3008294
  25.9584233  56.0380914  64.0732920  26.3337009  55.5118594  64.5180622
   9.3157244  50.7639318  61.1833465   9.4173381  51.5665479  61.5114440
  10.1113131  50.5626653  60.8856545   9.4485150  50.8525216  61.1868820
  15.7474063  48.3495514  70.9470770  15.5557260  48.3650649  71.7970193
  16.5972659  48.5459189  70.9237425  15.8449785  48.3809866  71.0694065
  10.1320976  50.8786496  68.9254586   9.9906468  50.0270436  69.0499094
  10.4161540  50.9215156  68.1016792  10.1528823  50.7586246  68.8222210
  20.2859569  52.7153586  63.0699075  20.0394283  52.6349337  63.9035863
  20.6144692  51.9307054  62.8761602  20.2980812  52.5879851  63.1646598
  24.1807618  59.4236945  66.8585856  24.0421977  60.1217991  67.3634598
  23.4007616  59.2685602  66.5022038  24.0450844  59.5037112  66.8812130
  22.5185703  55.7233321  73.1108237  22.5133741  54.8513137  73.1150664
  23.2246697  55.9221490  72.6377693  22.6230707  55.6237195  73.0415273
  16.2456596  55.4510305  72.4822058  16.3899972  56.0311513  71.8465168
  16.5932245  55.8286601  73.1871912  16.3184057  55.5931009  72.4921053
  18.4176513  54.6500473  70.2647189  17.6699827  54.8431487  69.8595467
  18.5718039  53.8245693  70.0271310  18.3298941  54.5565584  70.1692595
  15.3184351  63.6413076  69.3483084  15.4673915  63.0815992  68.6956489
  16.0984353  63.7205078  69.7315603  15.4558445  63.5698642  69.3080034
  25.6760990  58.7815199  57.6202355  25.2967799  57.9952337  57.6131644
  25.0127236  59.3302056  57.4773999  25.5219465  58.7460023  57.5983152
  17.8437652  63.8127719  70.6267575  17.7681323  63.1436530  71.1818364
  17.7727511  64.5145507  71.1408241  17.8218259  63.8172627  70.7844423
  18.6578290  48.5451024  71.1542593  19.1150905  49.2774998  71.2815385
  18.7334619  48.1217489  71.9129849  18.7369260  48.5908262  71.2843669
  10.9011282  48.7916843  72.2432037  10.3653471  48.1797202  72.5592804
  10.9629046  49.3664979  72.8965703  10.8306914  48.7863771  72.3867463
  23.1305616  41.7240899  65.0236436  23.2489185  42.1817362  64.2903739
  22.9567792  40.9186160  64.7372653  23.1224787  41.6734671  64.8737369
  18.5007899  62.3328718  61.4591181  19.2657790  62.0638362  61.1373845
  18.3985989  61.8478729  62.1761244  18.5989394  62.2218283  61.5171009
  16.5360668  50.5353128  67.9984417  15.7456743  50.3544588  68.3201753
  16.9321291  49.7580080  67.9814711  16.4777545  50.3940589  68.0436965
  21.0226559  59.3640902  53.4391131  21.7899544  59.4241027  53.0296982
  20.5757868  58.7921343  52.9547449  21.0699986  59.2877478  53.3068841
  21.9204355  58.1695558  65.7243863  21.2449356  57.9380790  66.2257250
  21.9296731  57.5616741  65.0985968  21.8222859  58.0454483  65.7060015
  19.0498499  53.0113387  72.4807916  18.9857640  53.8723343  72.3528053
  19.1895686  52.6945380  71.6803467  19.0613969  53.0913553  72.3436129
  23.9221089  61.0260690  57.9554041  24.0040927  61.8327676  57.6315492
  24.4070831  61.0456649  58.6794814  24.0058247  61.1481353  58.0140939
  17.7317593  55.7045526  66.6224119  17.3079842  55.9050025  65.8863137
  17.5562448  54.8574374  66.7348419  17.6428473  55.6094308  66.5297809
  13.0200038  56.1997578  62.0552091  13.1764657  56.1344380  62.9108083
  13.3600631  56.9746130  61.8430771  13.0933272  56.3046776  62.1506685
  19.5579182  55.5755461  60.9245455  20.0994728  55.0725842  61.3884075
  19.8725741  55.5220656  60.1134940  19.6843579  55.4934882  60.8729267
  23.4296290  59.7858108  78.0372367  24.2431155  59.5143257  78.1977499
  23.2691256  59.4865648  77.2332563  23.5266238  59.7013034  77.9417773
  17.7265632  60.9672813  58.2085483  17.7958452  60.1087351  58.3478483
  18.5054087  61.1844694  57.8804507  17.8518482  60.8725677  58.1802640
  20.7068452  50.4691766  70.9767755  20.9210421  49.8302680  70.4231109
  20.0902351  50.9137589  70.5475617  20.6473781  50.4401909  70.8318186
  22.1173119  63.3910514  62.4221976  21.7252911  63.0877229  61.7044842
  22.2726192  64.2279604  62.2326930  22.0826709  63.4694351  62.2878473
   9.5934299  53.3832528  62.3712858   9.9733264  53.8017073  61.7073126
   9.0189664  53.9645984  62.6781702   9.5645624  53.5310387  62.3189599
  22.8707540  52.0780831  71.9151062  22.0584221  51.7706721  71.9964235
  23.3297474  51.5979831  72.4793774  22.8187924  51.9617323  72.0105656
  22.2812794  59.9560503  62.3628006  21.9227449  60.1275146  63.1392039
  21.7951505  60.4173708  61.8056005  22.1571491  60.0499474  62.3953275
  20.0983180  43.5791701  65.9655098  19.2276738  43.5530422  65.9188407
  20.3523521  43.4068893  65.1480943  20.0076740  43.5501845  65.8375235
  17.0701160  55.6359668  54.9028241  17.3593684  56.4124551  55.1771815
  17.1572958  55.1248400  55.6042740  17.1255416  55.6751587  55.0470739
  19.9661047  53.4840902  76.6979764  20.4360678  54.1083019  77.0847638
  20.0122927  52.8157878  77.2572979  20.0428923  53.4775583  76.8379836
  17.1232321  45.5897930  67.4228568  16.6070809  44.8978121  67.5480147
  16.5626250  46.2568707  67.3691167  16.9638834  45.5861187  67.4334634
  19.1924554  46.1290890  69.2521421  18.8056307  46.1539921  70.0334951
  18.7057491  45.5632568  68.7995937  19.0637063  46.0486641  69.3009324
  23.4417534  60.8464399  73.3095207  24.0797254  60.3524594  72.9757663
  22.7991625  60.7741799  72.7247434  23.4411760  60.7623407  73.1737562
  25.1674534  52.6953545  67.8761123  24.7402142  52.6079893  67.1209222
  24.5300587  52.8031320  68.4615967  25.0104141  52.6986205  67.8506564
  18.8581696  43.0157875  71.5431681  19.4874814  43.5518175  71.2652751
  19.0267559  42.9235234  72.3945246  18.9759490  43.0819237  71.6280209
  18.6595611  47.8029070  73.8158092  19.4869040  47.5314219  73.8716707
  18.6803457  48.5989912  74.1721910  18.7848461  47.8808824  73.8773275
  23.4971790  61.5384207  69.9500564  24.2864168  61.1873272  70.0702646
  23.6715388  62.3520595  69.6877198  23.6392072  61.6070064  69.9288432
  13.2365101  54.9492933  67.0028353  12.3953107  54.8496807  67.2107247
  13.4455109  55.7188413  67.3542674  13.1429793  55.0484976  67.0855668
  10.7140668  52.5712470  64.8313104  10.3197365  52.6455481  64.0563213
  10.1580784  52.9570416  65.3821465  10.5743480  52.6394244  64.7980763
  22.3505614  45.5493764  64.5116982  22.5555208  45.4816072  65.3573980
  22.0232038  46.3552585  64.4438160  22.3320862  45.6579704  64.6276638
  17.0481765  52.8774332  66.2525950  16.7444903  52.3230320  66.8536358
  16.3461186  53.0566542  65.7653985  16.8997975  52.8219114  66.2695656
  16.1047863  50.1874852  60.8170652  16.3807597  49.4693764  60.4048220
  16.7046532  50.7859772  60.6091758  16.2341127  50.1695222  60.7251413
  25.6039302  46.1025528  63.9919748  24.9913616  46.5895930  64.3773480
  25.7003477  45.4269019  64.5357399  25.5277200  46.0743837  64.1298606
  19.6058383  47.8588369  59.0917247  20.0602130  48.0298929  59.8165092
  20.0798429  47.2456480  58.6915023  19.7426703  47.7939254  59.1391009
  13.1273908  57.3436695  68.4219986  12.5361842  57.9846193  68.3923001
  13.8894932  57.7674312  68.3951285  13.1522169  57.5012533  68.4135133
  13.5234531  48.5038693  69.0888003  13.9836013  48.5777622  69.8263127
  13.5690638  49.3019947  68.7387825  13.5985087  48.6332840  69.1460760
  15.1717881  49.1705388  73.6560030  14.7803446  48.5238735  74.0915808
  15.3403744  49.7616823  74.2754286  15.1388791  49.1619656  73.8122736
  29.2464330  57.1742465  69.4197264  29.3047454  57.6229113  70.1657241
  28.6130798  57.5841278  68.9827344  29.1615625  57.3016199  69.4649812
  22.8863425  62.7946007  65.8552010  22.6883113  63.2836821  65.1608222
  22.2651136  62.9987248  66.4336144  22.7650989  62.8962545  65.8375233
  16.9471403  54.5630903  60.1962254  17.6913448  54.9505180  60.4345204
  17.0932099  53.7188329  60.3602742  17.0781988  54.4961376  60.2556224
  18.8650978  46.3581162  65.2294116  18.0187024  46.5303970  65.1035466
  18.8622111  45.5530506  65.5659944  18.7398128  46.2642191  65.2605243
  19.9349279  50.1356377  66.0956174  19.4609233  49.6098139  66.6061485
  20.3067415  49.5885850  65.5271035  19.9199168  49.9772373  66.0871321
  10.3122309  52.1327883  71.4639720  11.1747922  52.0323593  71.3777049
   9.9814092  51.5522593  70.9025292  10.3907505  52.0319510  71.3685125
  26.1986009  55.1958752  67.5062954  25.9584232  54.3565168  67.5105381
  26.6778017  55.2758919  68.2303728  26.2338193  55.0840152  67.6137757
  21.8632779  51.0292931  59.1581928  21.3355797  51.1121675  58.4687636
  22.3228487  51.7710803  59.1546572  21.8534629  51.1513594  59.0556623
  28.1991196  51.9760210  65.4592213  27.9600966  51.9356044  64.6212998
  28.3625098  52.8231362  65.5857935  28.1881500  52.0952295  65.3545695
  24.8037227  56.3610159  71.3897259  25.5271425  55.9082685  71.2108279
  24.5387189  56.6414825  70.6069586  24.8718500  56.3361127  71.2475974
  13.6724095  50.9570332  68.1250138  13.0477165  50.9688724  67.5176090
  13.3369690  51.4330508  68.7741378  13.5309587  51.0288849  68.1306706
  13.8565844  49.2995451  54.1822823  13.5078648  49.9515176  54.6454372
  13.3762289  49.2852564  53.4546694  13.7336088  49.3938504  54.1433914
  21.4169861  59.5996495  58.2891585  22.1404060  60.0654608  58.1456158
  20.9770452  59.6670105  57.5389182  21.4585553  59.6780332  58.1576366
  20.5856016  56.4594037  69.5392274  19.9713009  55.9152087  69.8340909
  21.1023301  55.9458274  69.0598090  20.5711679  56.3030446  69.5116502
  19.8252313  57.5298307  67.2736572  19.3979921  56.9048026  66.8402008
  19.8177258  57.2473229  68.0995579  19.7611454  57.3951088  67.3316400
  12.9414840  52.5663480  70.3425006  13.1008327  51.8106804  70.7476728
  12.7607734  53.1154420  70.9965744  12.9380199  52.5357294  70.4987712
  20.8835143  44.7324716  70.8975796  20.3875705  44.9288390  70.2067362
  21.6404205  45.1317384  70.7264597  20.9221968  44.8202450  70.7695932
  18.1538023  48.4067062  67.4879106  18.1780510  47.8727174  66.7991886
  18.4049497  47.8984371  68.1504697  18.1947942  48.2527966  67.4843751
  14.4339345  47.1337880  66.8684851  14.4737717  47.6347087  67.5819558
  13.6089010  47.2248274  66.5990774  14.3178871  47.2219696  66.9335389
  15.8553709  53.6498390  69.1658750  15.0245638  53.8172208  68.9593998
  15.8005226  53.2734341  69.9507635  15.7243123  53.6188121  69.2507278
  13.6637492  47.1407283  74.8015160  14.2890195  46.5969416  75.0744593
  13.2087972  46.6602200  74.2322951  13.6885752  46.9896764  74.7576754
  14.2289752  51.9253981  59.6948867  14.3692713  52.4226446  60.3977509
  14.7272285  51.2240276  59.8363081  14.3230833  51.8955960  59.8200446
  14.2589975  52.7921092  57.0241444  14.8935054  53.3881517  56.9590906
  14.3415586  52.4924550  57.8387314  14.3646526  52.8362001  57.1344531
  27.2372541  55.3236570  69.8927808  27.8290381  55.9633820  69.9246006
  27.6731535  54.6259606  70.1819875  27.3890972  55.3154920  69.9408641
  15.8368958  48.7235068  56.9986886  16.1584799  48.2438150  56.3446148
  16.0995901  49.5334714  56.8077698  15.9234983  48.7724966  56.8742378
  19.0665930  59.7453942  70.5185702  18.5591022  60.2989789  70.9626333
  18.7692577  59.8062232  69.7004477  18.9470815  59.8360253  70.4634159
  21.2328113  48.1107262  69.3610365  21.6583184  47.6579788  68.7493892
  20.6185106  47.5567332  69.6375153  21.2056758  47.9621238  69.3115390
  10.7642963  54.9888933  60.2930990  11.2735192  55.5853441  60.6742296
  11.2377235  54.7214907  59.6107410  10.9086338  55.0374749  60.2485513
  21.6773711  63.6617200  58.4489646  20.9603020  63.4878062  57.9836883
  22.3280448  63.4269772  57.9165132  21.6675561  63.6012992  58.3018864
  19.6722335  44.5822362  62.7700942  19.0290653  44.4320008  63.3386081
  19.3321742  44.3364707  62.0050047  19.5267413  44.5234484  62.7403957
  24.2621682  52.5381788  62.1930951  23.5912872  53.0811491  62.0644016
  24.9561432  53.0076644  61.9512646  24.2650549  52.6880060  62.1386479
  18.3108416  64.6778500  67.4242709  18.0874070  63.9197330  67.7926735
  17.8218259  64.7076522  66.7023149  18.2051865  64.5700725  67.3719450
  24.4249809  48.9937672  65.1021324  24.7777419  48.5667395  65.7767123
  23.5664611  48.9088516  65.2322400  24.3499254  48.9182413  65.2216334
  13.1233494  51.6245192  63.1604171  12.4045484  52.0409324  63.4277034
  13.4945857  52.1899430  62.6095809  13.0725426  51.7694473  63.1186978
  22.4233075  52.2573041  69.0506166  22.4031003  52.0756336  69.9040945
  22.4712276  53.1285059  69.0265750  22.4267716  52.3589579  69.1729461
  20.3679405  58.8460233  74.9754643  20.3275260  58.2009910  74.3899799
  21.1802723  58.7896850  75.2880055  20.4822559  58.7419199  74.9351592
  16.9586873  64.8978958  64.8779794  16.5447271  64.2353089  64.4883635
  17.6434247  65.0456817  64.3575488  16.9985244  64.8219617  64.7436291
  20.3252167  64.0569044  65.6303410  19.9268450  64.1671314  64.8624231
  19.7103386  64.2651110  66.2129970  20.1751056  64.1042612  65.6034710
  18.8980069  50.6643192  58.4977550  18.3044908  50.9860188  57.9462117
  18.9355346  49.8184287  58.2898656  18.8154458  50.5867520  58.3860321
  25.8573870  44.1156084  66.0305637  25.3504734  43.4085223  65.9626814
  26.6541303  43.7849273  66.1606713  25.9001109  43.9629235  66.0404631
  21.7737885  50.6222696  61.9279300  21.5451578  50.6455398  61.0857658
  22.0335962  49.7980163  62.0474311  21.7784073  50.5038776  61.8204498
  16.0557114  52.4757169  71.5304400  15.5436017  51.8678352  71.8889432
  15.8836610  53.1913762  71.9978376  15.9546751  52.4920468  71.6520624
  14.8282648  49.1599242  63.2233496  15.3040014  49.5216322  62.5883677
  14.3271247  49.8155710  63.5033639  14.8248007  49.3093431  63.1710237
  28.0594009  58.6321010  59.0146501  28.4427615  59.3812367  59.2444598
  27.2638123  58.8786830  58.7558490  27.9987792  58.7790704  59.0104075
  19.9326184  50.3981414  73.9706656  20.4897614  50.1695223  73.3385121
  19.6087249  51.1587079  73.6941868  19.9672594  50.4765250  73.8363153
  17.6509301  53.4849067  74.9358663  18.4020628  53.8000744  75.2498217
  17.8431878  53.2828238  74.1092585  17.7900716  53.5016449  74.8602059
  16.8709301  51.3040442  56.5906880  17.2508266  51.3220071  55.8057995
  16.1301897  51.7494431  56.4697727  16.8178139  51.3722217  56.4570448
  24.4994592  49.6122633  62.1782459  24.4988818  49.4571290  63.0366735
  24.2950772  50.4585620  62.1223844  24.4694369  49.7143254  62.2970398
   6.5611862  53.0362418  66.5941275   6.3833624  52.5839027  67.3196191
   6.2730885  53.8388579  66.7779753   6.4924816  53.0884976  66.7284778
  22.2235444  54.2920135  65.8318665  22.7189109  53.5743130  65.7922686
  21.4135219  53.9890933  65.7173152  22.1779337  54.1417781  65.8092391
  17.6694055  58.1417948  57.9815670  16.8605378  57.8184622  57.9348979
  18.1768964  57.4351171  57.9143919  17.6243722  57.9899265  57.9645964
   8.2984332  55.5690142  63.7063034   7.4329852  55.5575832  63.5945805
   8.3983148  55.3820364  64.5534173   8.1858499  55.5396203  63.8151979
  24.2887262  57.0423823  68.5195794  24.7142334  56.5198245  67.9666219
  23.9244182  57.6404660  67.9984417  24.2973865  57.0534050  68.3604804
  13.9241342  65.3388040  67.2793140  14.2387901  66.1524429  67.2870921
  14.3334756  64.9538259  67.9475299  14.0309440  65.4016743  67.3797231
  20.8765862  60.7558087  64.8496952  21.3477040  61.4698350  65.0186937
  21.2126040  60.1556837  65.3856821  20.9960977  60.7729551  64.9529328
  17.7935357  45.5285558  71.8055046  17.9263262  44.7316551  72.1336022
  18.1780510  46.0551961  72.3853322  17.8691686  45.4885474  71.9398549
  21.5139808  60.5476021  71.6124644  20.9660754  59.9233905  71.3444710
  21.9752837  60.7370293  70.8968724  21.5007018  60.4835071  71.4675075
  20.8667712  42.4515884  68.4036140  20.0613676  42.3413613  68.7203978
  20.7374447  42.5528339  67.5466006  20.7287845  42.4499554  68.3244180
  24.3233673  48.6161376  68.9975837  23.7396661  49.1170582  68.5853404
  24.6437967  48.1090932  68.3640160  24.2846848  48.6153211  68.8434344
  16.8628472  47.5301970  59.2734511  17.6844166  47.7000283  59.0316206
  16.3998123  47.6849231  58.5500809  16.9159634  47.5783703  59.1306156
  15.4523804  45.5244733  70.0532940  15.9968217  45.1835859  70.6437282
  15.5060739  46.3830194  70.1954225  15.5412923  45.5999992  70.1614814
  11.2654362  59.2861149  66.9271748  11.8699220  59.2456983  66.2985569
  11.0581675  60.1332301  66.9575804  11.3243260  59.4049151  66.8387865
  21.0798135  61.5527094  68.1433986  21.8996508  61.4090060  68.4050281
  20.7992212  62.1773293  68.6850423  21.1594878  61.6237446  68.2621925
  37.5511785  69.2091945  61.1076862  37.5205789  70.0636582  61.2795131
  38.1493134  68.9087238  61.6663006  37.6348943  69.2908442  61.2151664
  30.7511470  68.2967596  65.8629792  29.8949365  68.4576095  65.9138909
  30.7979123  67.4259660  65.8834853  30.6310581  68.1918398  65.8735858
  33.5963291  70.3559640  68.5061444  34.1419251  71.0344727  68.5655414
  33.5380167  70.2147101  67.6463025  33.6679205  70.4351642  68.3873505
  35.3728359  71.7844248  59.3795172  35.2567885  72.5351934  59.8087310
  36.1684246  71.5268201  59.6291259  35.4732949  71.8579094  59.4799263
  19.9102410  73.8668993  63.5182130  19.6752594  73.0336645  63.4114399
  20.0488051  74.1473659  62.7043331  19.8958072  73.7852496  63.3824485
  22.2092497  66.0354724  66.4166438  21.5897529  65.4447371  66.2476453
  22.1076361  66.6266159  65.7830761  22.1030173  66.0358806  66.2971427
  27.2558685  75.7738271  60.6664514  27.5774526  76.3143478  60.0625822
  27.9030781  75.2035042  60.7986804  27.3984740  75.7697446  60.5971549
  29.3060393  67.7754265  60.7498901  30.0040558  67.9542393  61.2420364
  29.6212726  67.2524605  60.1269290  29.4555730  67.7248038  60.7300911
  21.9361630  69.5807005  68.6610007  21.8120327  70.1669451  69.2959826
  22.5879915  69.0867201  68.9622282  22.0135280  69.5945810  68.7995936
  29.4948328  74.1624711  60.7378692  29.9341964  73.5541811  61.1833465
  29.3452991  73.7832084  59.9664157  29.5369794  74.0163182  60.6897860
  26.9619971  72.7568722  67.9397518  27.6068974  72.2641165  67.6208466
  27.2021748  72.8993509  68.7663596  27.0930556  72.7046165  68.0147051
  29.5006063  75.6023628  67.5904410  29.7829306  74.8075034  67.3691166
  30.2292223  76.0804216  67.6109471  29.6495626  75.5558225  67.5607426
  27.4787257  63.1446662  64.8320175  27.1490587  63.5957806  64.1623874
  26.8032258  63.0662825  65.3793182  27.3297693  63.1997797  64.8143399
  33.0957665  72.5151892  57.6909462  33.0108960  73.3712858  57.8359030
  33.5842048  72.2396216  58.3591621  33.1546562  72.6009213  57.8111543
  34.6863664  59.1332185  63.0769786  34.3717105  59.8235664  63.5090208
  34.1690606  59.0776967  62.3755287  34.5628135  59.2267074  63.0366735
  34.0276098  69.1336686  59.1907197  33.4987570  69.3496319  59.8504503
  34.5501118  69.8272824  59.1108166  34.0264551  69.2679823  59.2762796
  39.4824151  74.7082990  64.5640241  38.6521854  74.9193634  64.7273658
  39.4333403  73.8820045  64.2882525  39.3530886  74.6172597  64.5477607
  25.9175706  73.0299903  57.9914665  25.3332921  73.5349934  58.3980529
  25.5145801  72.8042290  57.2511257  25.7715010  73.0708151  57.9419690
  30.3752920  69.2765555  56.4683585  30.6148924  69.4843539  55.6558928
  30.6968761  68.4723064  56.5772530  30.4590078  69.1879656  56.3644138
  25.6843211  61.2058951  60.3143123  26.4389179  61.5737268  60.0760173
  25.5070745  61.5798505  61.0822303  25.7697689  61.3157138  60.3928012
  38.9778109  67.3553391  68.3590663  38.1406530  67.4255578  68.5938257
  38.9466340  67.3577886  67.4864965  38.8496392  67.3663618  68.2650210
  25.3742838  69.4986427  74.0739031  25.5463342  69.3892321  74.9224313
  25.9112196  70.1440832  73.8370223  25.4787842  69.5778428  74.1644128
  24.0400275  63.6129270  57.0121236  23.8575849  63.8301150  56.1862229
  24.9025888  63.7268282  57.0679851  24.1404865  63.6619167  56.8975723
  23.6514707  75.4517192  64.4544224  24.4903607  75.6840125  64.5017986
  23.6826476  74.5821503  64.3851259  23.7796425  75.3574138  64.4508869
  29.7199994  60.6155680  60.0470260  30.4486155  60.4371635  59.6008416
  29.8094887  61.4573760  60.2577438  29.8406657  60.7139559  60.0123778
  33.7008295  71.5509068  63.9502554  34.4565810  71.9840582  63.9891463
  33.8070620  70.9013837  64.5237190  33.8278466  71.5186551  64.0400580
  36.7388466  75.3782345  64.7004957  36.3023698  75.3819087  65.4563928
  36.4051382  76.0587844  64.2684534  36.6251086  75.4794801  64.7485790
  36.6585949  62.4196173  66.9434385  37.3011858  62.4894277  67.5296300
  36.9108970  61.7525396  66.4413927  36.7908081  62.3322521  66.9561664
  23.5862302  66.8903442  55.5243709  22.8720479  66.6041622  55.9366142
  24.0706271  67.2300068  56.1650097  23.5521666  66.8985092  55.6799344
  24.4303162  65.6296736  71.5558959  23.7374958  65.1593716  71.8019690
  25.0463489  65.4035041  72.1300666  24.4187692  65.5263868  71.6768111
  39.8732812  72.0963265  63.5924594  40.5349247  71.5353933  63.4920503
  39.2324224  71.6015295  63.9177285  39.8761680  71.9399674  63.6256934
  30.7609620  75.3933396  55.9005517  31.1760769  75.0618420  55.2090013
  29.9301550  75.1602298  55.7725654  30.6997629  75.3104652  55.7796365
  20.0897969  72.8777137  66.1903695  19.9073542  72.8524023  65.3375988
  20.8247638  73.3476075  66.2292604  20.1712033  72.9438499  66.0701614
  36.1597643  73.1128647  63.3336583  36.3953232  73.2573846  62.5063434
  36.3087207  73.8771055  63.7268097  36.2163446  73.2467702  63.2700187
  23.1543721  69.5962140  72.6985804  23.8783693  69.5815171  73.1850699
  23.2559857  70.3057495  72.2007772  23.2761930  69.6986843  72.6964591
  37.9888100  71.9530313  61.1706187  38.3196317  72.4857953  60.5646282
  38.5621188  72.0069201  61.8268138  38.1221779  72.0399882  61.1783969
  33.2019989  69.7995216  61.8529767  33.2966843  70.5384510  62.3069392
  32.5778833  69.3712691  62.2864331  33.1229019  69.8456536  61.9837914
  20.0568879  69.7570638  66.3402762  20.6342382  69.6207089  66.9795007
  19.3582941  69.3006422  66.5948346  20.0389901  69.6692904  66.4725052
  33.4543010  71.6443956  55.0866719  33.3723173  71.7146143  55.9521706
  34.0922731  72.2073699  54.8950460  33.5362848  71.7382927  55.1856668
  26.8136182  71.4104694  64.5541245  26.5555426  70.5776428  64.5272545
  26.8684664  71.6362306  63.7133746  26.7835959  71.3202465  64.4261382
  31.8937232  63.5133144  64.6545338  31.1893558  63.0242330  64.8129257
  31.9422206  63.5255619  63.7833782  31.7967283  63.4422792  64.5484678
  25.7870894  68.9642456  65.0406140  25.2120485  69.1234624  65.6770101
  25.4106570  68.3277865  64.5774591  25.6473706  68.8940269  65.0660698
  29.4544182  67.4365805  69.8998518  29.0658615  67.0120023  69.2450710
  28.7898881  67.6847955  70.4075545  29.2991110  67.4104526  69.8786386
  39.0967451  67.1940810  62.6746348  38.8404016  66.3820751  62.4844231
  39.9396765  67.2018377  62.4476536  39.1833477  67.0752807  62.6131166
  15.5327713  68.6082531  63.0550581  15.6187964  68.2314399  63.8364111
  16.1603510  68.2342976  62.5770539  15.6384264  68.4968013  63.0996058
  33.2770544  61.1340434  67.4122503  33.6581056  60.4518605  67.7990377
  32.4733828  60.8450036  67.2298167  33.2147006  60.9907483  67.4426559
  30.5583121  71.6664410  58.0975325  31.3723759  71.9579303  57.9858097
  30.4942262  71.0124272  57.5233618  30.6685860  71.6129605  57.9964163
  26.4291029  75.1385927  63.2247637  27.0664976  74.8997675  63.7699431
  26.8546100  75.3423086  62.4900798  26.5867195  75.1336938  63.1964795
  27.0693844  70.3588217  57.5622527  27.4538997  70.1395924  58.3139072
  26.8205464  71.1851162  57.6923603  27.0895916  70.4486363  57.6923603
  27.2362384  63.6394632  77.2785111  26.9215825  64.4094195  77.0154674
  26.9152317  63.0764888  76.6937338  27.1421303  63.6704901  77.1526461
  28.8112501  75.6158350  64.9041424  28.8851509  75.4533522  65.7583274
  29.6282007  75.8048540  64.6601905  28.9428859  75.6195092  64.9939449
  24.7894281  62.0285154  62.8931307  23.9216707  62.1007753  62.9588917
  25.0769486  62.8307233  63.0819282  24.7034029  62.1579301  62.9306074
  33.9127170  62.1763013  71.2242629  34.6580762  61.9872824  70.8106055
  33.4964475  62.7021251  70.6656486  33.9612144  62.2265159  71.0807202
  41.2889441  69.5472242  66.1748134  41.8397362  68.9140311  66.4145226
  41.2733556  70.0787634  66.8663638  41.3674637  69.5321190  66.3126992
  27.9411832  73.3810839  70.7208028  27.4423525  74.0926607  70.7992916
  28.7512056  73.7011505  70.6826190  27.9867938  73.5337688  70.7264596
  24.2039949  72.6433792  64.9670748  23.9153198  72.0171263  65.5016476
  25.0723297  72.5854079  65.0335429  24.2900201  72.5421336  65.0561703
  34.9917847  67.7868575  65.2852730  34.6482613  67.0658911  65.6359980
  35.0910890  67.5782426  64.4431089  34.9559890  67.6492779  65.2124410
  24.4072223  74.2829043  60.8913114  25.1618191  74.6642082  61.1048576
  23.8142835  74.7340187  61.3459810  24.4308936  74.4057870  60.9895992
  35.4530876  74.2494279  60.8276718  36.0188909  74.9087489  60.7435261
  34.8058780  74.5943977  61.2993121  35.4409633  74.3976221  60.8849475
  26.8678890  66.2391883  76.0170326  26.0578665  66.5449663  75.9060168
  27.3453576  66.9597466  76.1322910  26.8182368  66.3906484  76.0177397
  25.7270449  75.4537604  66.2653229  25.2051203  75.5937896  66.9505094
  26.1144470  74.6948269  66.4555346  25.7074150  75.3623128  66.3954305
  22.7161633  65.5043413  60.3348184  22.4286429  65.1344683  59.5980131
  23.4032102  65.9738268  60.0731889  22.7750531  65.5190382  60.1863259
  31.9237454  77.1933064  60.2513798  31.6824130  76.4600924  59.8440863
  32.1038787  77.7419921  59.5980131  31.9145078  77.1655455  60.0944021
  27.1536775  72.4841623  61.6634720  26.9579558  73.0916358  61.0695023
  27.3771120  71.7909567  61.1826394  27.1571416  72.4719149  61.5050801
  25.5515305  69.3696361  61.7815588  26.2737957  69.5337519  61.3219394
  25.0723298  70.0906026  61.6754928  25.5879036  69.4994591  61.6981202
  33.5108812  65.7060160  67.1612273  32.6719913  65.7321439  66.9250537
  33.5813180  66.3530895  67.7417620  33.3977206  65.8056286  67.2121390
  31.9578091  62.6045537  61.8939889  32.6604444  62.4053285  61.4159847
  31.6922279  61.8321479  62.2008733  32.0224723  62.4608503  61.8685331
  37.3866336  70.9128147  64.4473515  37.3000311  71.0683573  65.3008294
  36.9316816  71.5566222  64.0732920  37.3069593  71.0303902  64.5180622
  20.2889828  66.2824626  61.1833465  20.3905964  67.0850787  61.5114440
  21.0845715  66.0811961  60.8856545  20.4217734  66.3710524  61.1868820
  26.7206647  63.8680822  70.9470770  26.5289844  63.8835957  71.7970193
  27.5705243  64.0644497  70.9237425  26.8182369  63.8995173  71.0694065
  21.1053560  66.3971804  68.9254586  20.9639052  65.5455744  69.0499094
  21.3894123  66.4400464  68.1016792  21.1261406  66.2771554  68.8222210
  31.2592152  68.2338894  63.0699075  31.0126867  68.1534645  63.9035863
  31.5877275  67.4492362  62.8761602  31.2713396  68.1065159  63.1646598
  35.1540201  74.9422253  66.8585856  35.0154560  75.6403299  67.3634598
  34.3740199  74.7870910  66.5022038  35.0183428  75.0222420  66.8812130
  27.2189180  70.9695613  72.4822058  27.3632555  71.5496821  71.8465168
  27.5664828  71.3471909  73.1871912  27.2916641  71.1116317  72.4921053
  29.3909097  70.1685781  70.2647189  28.6432411  70.3616795  69.8595467
  29.5450622  69.3431000  70.0271310  29.3031525  70.0750892  70.1692595
  36.6493574  74.3000507  57.6202355  36.2700383  73.5137645  57.6131644
  35.9859819  74.8487364  57.4773999  36.4952049  74.2645331  57.5983152
  29.6310874  64.0636332  71.1542593  30.0883488  64.7960306  71.2815385
  29.7067203  63.6402797  71.9129849  29.7101844  64.1093570  71.2843669
  21.8743865  64.3102151  72.2432037  21.3386055  63.6982509  72.5592804
  21.9361630  64.8850287  72.8965703  21.8039498  64.3049079  72.3867463
  34.1038200  57.2426207  65.0236436  34.2221768  57.7002670  64.2903739
  33.9300376  56.4371468  64.7372653  34.0957371  57.1919979  64.8737369
  27.5093252  66.0538436  67.9984417  26.7189327  65.8729896  68.3201753
  27.9053875  65.2765388  67.9814711  27.4510128  65.9125896  68.0436965
  31.9959143  74.8826210  53.4391131  32.7632128  74.9426335  53.0296982
  31.5490452  74.3106651  52.9547449  32.0432570  74.8062786  53.3068841
  32.8936938  73.6880866  65.7243863  32.2181940  73.4566098  66.2257250
  32.9029314  73.0802049  65.0985968  32.7955443  73.5639791  65.7060015
  30.0231082  68.5298695  72.4807916  29.9590223  69.3908651  72.3528053
  30.1628270  68.2130688  71.6803467  30.0346552  68.6098861  72.3436129
  34.8953673  76.5445998  57.9554041  34.9773510  77.3512984  57.6315492
  35.3803415  76.5641957  58.6794814  34.9790831  76.6666660  58.0140939
  28.7050176  71.2230834  66.6224119  28.2812425  71.4235333  65.8863137
  28.5295031  70.3759682  66.7348419  28.6161057  71.1279615  66.5297809
  23.9932621  71.7182885  62.0552091  24.1497240  71.6529688  62.9108083
  24.3333214  72.4931438  61.8430771  24.0665856  71.8232084  62.1506685
  30.5311766  71.0940769  60.9245455  31.0727311  70.5911150  61.3884075
  30.8458325  71.0405964  60.1134940  30.6576163  71.0120190  60.8729267
  28.6998215  76.4858121  58.2085483  28.7691036  75.6272659  58.3478483
  29.4786671  76.7030001  57.8804507  28.8251065  76.3910985  58.1802640
  31.6801035  65.9877074  70.9767755  31.8943005  65.3487988  70.4231109
  31.0634934  66.4322897  70.5475617  31.6206364  65.9587217  70.8318186
  20.5666883  68.9017836  62.3712858  20.9465847  69.3202381  61.7073126
  19.9922247  69.4831292  62.6781702  20.5378207  69.0495695  62.3189599
  33.8440123  67.5966139  71.9151062  33.0316805  67.2892029  71.9964235
  34.3030058  67.1165139  72.4793774  33.7920508  67.4802631  72.0105656
  33.2545378  75.4745811  62.3628006  32.8960033  75.6460454  63.1392039
  32.7684089  75.9359016  61.8056005  33.1304075  75.5684782  62.3953275
  31.0715764  59.0977009  65.9655098  30.2009322  59.0715730  65.9188407
  31.3256105  58.9254201  65.1480943  30.9809324  59.0687153  65.8375235
  28.0433743  71.1544976  54.9028241  28.3326268  71.9309859  55.1771815
  28.1305542  70.6433708  55.6042740  28.0987999  71.1936894  55.0470739
  28.0964904  61.1083238  67.4228568  27.5803393  60.4163429  67.5480147
  27.5358833  61.7754015  67.3691167  27.9371417  61.1046495  67.4334634
  30.1657138  61.6476198  69.2521421  29.7788891  61.6725229  70.0334951
  29.6790075  61.0817876  68.7995937  30.0369647  61.5671949  69.3009324
  36.1407117  68.2138853  67.8761123  35.7134725  68.1265201  67.1209222
  35.5033170  68.3216628  68.4615967  35.9836724  68.2171512  67.8506564
  29.8314279  58.5343183  71.5431681  30.4607397  59.0703483  71.2652751
  30.0000142  58.4420542  72.3945246  29.9492074  58.6004545  71.6280209
  29.6328194  63.3214378  73.8158092  30.4601624  63.0499527  73.8716707
  29.6536040  64.1175220  74.1721910  29.7581044  63.3994132  73.8773275
  24.2097684  70.4678241  67.0028353  23.3685691  70.3682115  67.2107247
  24.4187692  71.2373721  67.3542674  24.1162377  70.5670284  67.0855668
  21.6873251  68.0897778  64.8313104  21.2929949  68.1640789  64.0563213
  21.1313368  68.4755724  65.3821465  21.5476063  68.1579552  64.7980763
  33.3238198  61.0679072  64.5116982  33.5287791  61.0001379  65.3573980
  32.9964622  61.8737893  64.4438160  33.3053446  61.1765012  64.6276638
  28.0214349  68.3959640  66.2525950  27.7177487  67.8415628  66.8536358
  27.3193770  68.5751850  65.7653985  27.8730559  68.3404422  66.2695656
  27.0780446  65.7060160  60.8170652  27.3540180  64.9879072  60.4048220
  27.6779115  66.3045080  60.6091758  27.2073711  65.6880530  60.7251413
  36.5771886  61.6210836  63.9919748  35.9646199  62.1081238  64.3773480
  36.6736060  60.9454327  64.5357399  36.5009783  61.5929145  64.1298606
  30.5790967  63.3773677  59.0917247  31.0334713  63.5484237  59.8165092
  31.0531012  62.7641788  58.6915023  30.7159287  63.3124562  59.1391009
  24.1006492  72.8622003  68.4219986  23.5094425  73.5031501  68.3923001
  24.8627516  73.2859620  68.3951285  24.1254753  73.0197841  68.4135133
  24.4967115  64.0224001  69.0888003  24.9568596  64.0962930  69.8263127
  24.5423222  64.8205255  68.7387825  24.5717670  64.1518148  69.1460760
  26.1450465  64.6890696  73.6560030  25.7536030  64.0424043  74.0915808
  26.3136327  65.2802131  74.2754286  26.1121375  64.6804963  73.8122736
  33.8596008  78.3131315  65.8552010  33.6615697  78.8022129  65.1608222
  33.2383719  78.5172556  66.4336144  33.7383573  78.4147853  65.8375233
  27.9203987  70.0816211  60.1962254  28.6646032  70.4690488  60.4345204
  28.0664683  69.2373637  60.3602742  28.0514572  70.0146684  60.2556224
  29.8383562  61.8766470  65.2294116  28.9919607  62.0489278  65.1035466
  29.8354695  61.0715814  65.5659944  29.7130712  61.7827499  65.2605243
  30.9081862  65.6541685  66.0956174  30.4341817  65.1283447  66.6061485
  31.2799998  65.1071158  65.5271035  30.8931751  65.4957681  66.0871321
  21.2854893  67.6513191  71.4639720  22.1480506  67.5508901  71.3777049
  20.9546676  67.0707901  70.9025292  21.3640089  67.5504818  71.3685125
  37.1718593  70.7144060  67.5062954  36.9316816  69.8750476  67.5105381
  37.6510600  70.7944227  68.2303728  37.2070777  70.6025460  67.6137757
  32.8365362  66.5478239  59.1581928  32.3088381  66.6306983  58.4687636
  33.2961070  67.2896111  59.1546572  32.8267213  66.6698902  59.0556623
  39.1723780  67.4945518  65.4592213  38.9333550  67.4541352  64.6212998
  39.3357681  68.3416670  65.5857935  39.1614084  67.6137603  65.3545695
  24.6456679  66.4755640  68.1250138  24.0209749  66.4874032  67.5176090
  24.3102273  66.9515816  68.7741378  24.5042170  66.5474157  68.1306706
  24.8298427  64.8180759  54.1822823  24.4811232  65.4700484  54.6454372
  24.3494873  64.8037872  53.4546694  24.7068671  64.9123812  54.1433914
  32.3902445  75.1181803  58.2891585  33.1136643  75.5839916  58.1456158
  31.9503036  75.1855412  57.5389182  32.4318137  75.1965640  58.1576366
  31.5588600  71.9779345  69.5392274  30.9445593  71.4337395  69.8340909
  32.0755885  71.4643582  69.0598090  31.5444262  71.8215754  69.5116502
  30.7984897  73.0483615  67.2736572  30.3712505  72.4233334  66.8402008
  30.7909841  72.7658537  68.0995579  30.7344038  72.9136396  67.3316400
  23.9147424  68.0848788  70.3425006  24.0740911  67.3292112  70.7476728
  23.7340318  68.6339728  70.9965744  23.9112783  68.0542602  70.4987712
  31.8567727  60.2510024  70.8975796  31.3608288  60.4473698  70.2067362
  32.6136789  60.6502692  70.7264597  31.8954552  60.3387758  70.7695932
  29.1270607  63.9252370  67.4879106  29.1513094  63.3912482  66.7991886
  29.3782080  63.4169678  68.1504697  29.1680525  63.7713274  67.4843751
  25.4071929  62.6523188  66.8684851  25.4470300  63.1532394  67.5819558
  24.5821593  62.7433582  66.5990774  25.2911455  62.7405004  66.9335389
  26.8286292  69.1683698  69.1658750  25.9978222  69.3357516  68.9593998
  26.7737809  68.7919649  69.9507635  26.6975707  69.1373429  69.2507278
  24.6370075  62.6592591  74.8015160  25.2622779  62.1154723  75.0744593
  24.1820555  62.1787508  74.2322951  24.6618336  62.5082072  74.7576754
  25.2022336  67.4439289  59.6948867  25.3425297  67.9411754  60.3977509
  25.7004869  66.7425584  59.8363081  25.2963417  67.4141268  59.8200446
  25.2322558  68.3106400  57.0241444  25.8667638  68.9066825  56.9590906
  25.3148169  68.0109858  57.8387314  25.3379109  68.3547308  57.1344531
  26.8101541  64.2420376  56.9986886  27.1317382  63.7623458  56.3446148
  27.0728485  65.0520022  56.8077698  26.8967567  64.2910274  56.8742378
  30.0398514  75.2639250  70.5185702  29.5323605  75.8175097  70.9626333
  29.7425160  75.3247540  69.7004477  29.9203399  75.3545561  70.4634159
  32.2060696  63.6292570  69.3610365  32.6315768  63.1765096  68.7493892
  31.5917689  63.0752640  69.6375153  32.1789342  63.4806546  69.3115390
  21.7375546  70.5074241  60.2930990  22.2467776  71.1038749  60.6742296
  22.2109819  70.2400215  59.6107410  21.8818922  70.5560056  60.2485513
  30.6454919  60.1007669  62.7700942  30.0023237  59.9505316  63.3386081
  30.3054326  59.8550015  62.0050047  30.4999996  60.0419792  62.7403957
  35.2354266  68.0567096  62.1930951  34.5645455  68.5996799  62.0644016
  35.9294016  68.5261952  61.9512646  35.2383133  68.2065368  62.1386479
  35.3982393  64.5122980  65.1021324  35.7510003  64.0852703  65.7767123
  34.5397194  64.4273823  65.2322400  35.3231838  64.4367721  65.2216334
  24.0966078  67.1430500  63.1604171  23.3778067  67.5594632  63.4277034
  24.4678440  67.7084738  62.6095809  24.0458010  67.2879781  63.1186978
  33.3965659  67.7758349  69.0506166  33.3763586  67.5941644  69.9040945
  33.4444860  68.6470367  69.0265750  33.4000300  67.8774887  69.1729461
  29.8712652  66.1828500  58.4977550  29.2777492  66.5045496  57.9462117
  29.9087930  65.3369595  58.2898656  29.7887041  66.1052828  58.3860321
  36.8306453  59.6341392  66.0305637  36.3237318  58.9270531  65.9626814
  37.6273887  59.3034581  66.1606713  36.8733692  59.4814543  66.0404631
  32.7470469  66.1408004  61.9279300  32.5184162  66.1640705  61.0857658
  33.0068545  65.3165471  62.0474311  32.7516657  66.0224084  61.8204498
  27.0289697  67.9942477  71.5304400  26.5168600  67.3863660  71.8889432
  26.8569194  68.7099070  71.9978376  26.9279334  68.0105776  71.6520624
  25.8015231  64.6784550  63.2233496  26.2772598  65.0401630  62.5883677
  25.3003831  65.3341018  63.5033639  25.7980590  64.8278739  63.1710237
  39.0326593  74.1506318  59.0146501  39.4160199  74.8997675  59.2444598
  38.2370706  74.3972138  58.7558490  38.9720375  74.2976012  59.0104075
  30.9058768  65.9166722  73.9706656  31.4630198  65.6880531  73.3385121
  30.5819833  66.6772387  73.6941868  30.9405178  65.9950558  73.8363153
  27.8441885  66.8225750  56.5906880  28.2240849  66.8405379  55.8057995
  27.1034481  67.2679739  56.4697727  27.7910722  66.8907525  56.4570448
  35.4727175  65.1307941  62.1782459  35.4721402  64.9756598  63.0366735
  35.2683355  65.9770928  62.1223844  35.4426953  65.2328562  62.2970398
  17.5344446  68.5547726  66.5941275  17.3566207  68.1024335  67.3196191
  17.2463468  69.3573887  66.7779753  17.4657399  68.6070284  66.7284778
  33.1968027  69.8105443  65.8318665  33.6921692  69.0928438  65.7922686
  32.3867803  69.5076241  65.7173152  33.1511920  69.6603089  65.8092391
  28.6426639  73.6603256  57.9815670  27.8337961  73.3369930  57.9348979
  29.1501548  72.9536478  57.9143919  28.5976305  73.5084573  57.9645964
  19.2716916  71.0875449  63.7063034  18.4062435  71.0761140  63.5945805
  19.3715732  70.9005672  64.5534173  19.1591083  71.0581511  63.8151979
  35.2619846  72.5609131  68.5195794  35.6874918  72.0383552  67.9666219
  34.8976766  73.1589968  67.9984417  35.2706449  72.5719358  68.3604804
  31.8498445  76.2743395  64.8496952  32.3209624  76.9883657  65.0186937
  32.1858624  75.6742145  65.3856821  31.9693561  76.2914859  64.9529328
  28.7667940  61.0470865  71.8055046  28.8995846  60.2501859  72.1336022
  29.1513093  61.5737268  72.3853322  28.8424269  61.0070782  71.9398549
  31.8400296  57.9701192  68.4036140  31.0346259  57.8598921  68.7203978
  31.7107031  58.0713647  67.5466006  31.7020428  57.9684862  68.3244180
  35.2966256  64.1346683  68.9975837  34.7129245  64.6355890  68.5853404
  35.6170550  63.6276240  68.3640160  35.2579431  64.1338519  68.8434344
  27.8361055  63.0487278  59.2734511  28.6576750  63.2185591  59.0316206
  27.3730706  63.2034539  58.5500809  27.8892218  63.0969011  59.1306156
  26.4256387  61.0430041  70.0532940  26.9700800  60.7021167  70.6437282
  26.4793323  61.9015502  70.1954225  26.5145507  61.1185300  70.1614814
  32.0530718  77.0712402  68.1433986  32.8729092  76.9275368  68.4050281
  31.7724796  77.6958601  68.6850423  32.1327461  77.1422754  68.2621925
  38.4519840  78.6631970  64.8320175  38.1223170  79.1143114  64.1623874
  37.7764842  78.5848133  65.3793182  38.3030276  78.7183105  64.8143399
  45.6596248  74.6517493  63.0769786  45.3449689  75.3420972  63.5090208
  45.1423190  74.5962275  62.3755287  45.5360718  74.7452382  63.0366735
  36.6575794  76.7244258  60.3143123  37.4121762  77.0922576  60.0760173
  36.4803329  77.0983813  61.0822303  36.7430273  76.8342446  60.3928012
  35.0132859  79.1314577  57.0121236  34.8308432  79.3486458  56.1862229
  35.8758472  79.2453590  57.0679851  35.1137448  79.1804475  56.8975723
  40.6932578  76.1340988  60.0470260  41.4218739  75.9556943  59.6008416
  40.7827471  76.9759068  60.2577438  40.8139240  76.2324867  60.0123778
  35.7626865  77.5470462  62.8931307  34.8949290  77.6193061  62.9588917
  36.0502069  78.3492541  63.0819282  35.6766613  77.6764609  62.9306074
  42.9310674  78.1230845  61.8939889  43.6337027  77.9238593  61.4159847
  42.6654863  77.3506787  62.2008733  42.9957307  77.9793811  61.8685331
  45.0770784  72.7611515  65.0236436  45.1954352  73.2187978  64.2903739
  44.9032959  71.9556776  64.7372653  45.0689955  72.7105287  64.8737369
  42.0448347  74.6162317  65.9655098  41.1741905  74.5901038  65.9188407
  42.2988689  74.4439509  65.1480943  41.9541907  74.5872461  65.8375235
  41.5523550  78.8958985  59.0917247  42.0067297  79.0669545  59.8165092
  42.0263596  78.2827096  58.6915023  41.6891870  78.8309870  59.1391009
  40.8116146  77.3951778  65.2294116  39.9652191  77.5674586  65.1035466
  40.8087278  76.5901122  65.5659944  40.6863296  77.3012807  65.2605243
  43.8097946  82.0663547  59.1581928  43.2820964  82.1492291  58.4687636
  44.2693654  82.8081419  59.1546572  43.7999796  82.1884210  59.0556623
  37.7834125  79.7605684  56.9986886  38.1049966  79.2808766  56.3446148
  38.0461069  80.5705330  56.8077698  37.8700150  79.8095582  56.8742378
  41.6187503  75.6192977  62.7700942  40.9755821  75.4690624  63.3386081
  41.2786910  75.3735323  62.0050047  41.4732580  75.5605100  62.7403957
  38.8093639  78.5672586  59.2734511  39.6309333  78.7370899  59.0316206
  38.3463290  78.7219847  58.5500809  38.8624801  78.6154319  59.1306156
  15.2997442  15.1099461  48.0416909  15.2691446  15.9644098  48.2135178
  15.8978790  14.8094753  48.6003052  15.3834600  15.1915957  48.1491711
   8.4997127  14.1975112  52.7969839   7.6435022  14.3583610  52.8478956
   8.5464780  13.3267176  52.8174900   8.3796238  14.0925914  52.8075905
   2.8838266  23.7337830  48.5607071   2.1321166  23.3553368  48.3323116
   3.3324278  23.7656263  47.8125881   2.8387933  23.6823437  48.4164573
  11.8090843  20.4661637  62.4030295  12.5157610  19.9713668  62.5317230
  11.9978779  20.9070719  61.6732953  11.9418749  20.4579988  62.3139341
   8.3363226  24.1563199  43.9892618   8.0014595  24.8340121  43.5536840
   8.8490097  23.7668510  43.4009489   8.3628807  24.1987777  43.8379409
   7.8767517  26.1077468  49.9303729   8.2606897  26.6764367  49.3908505
   7.8126659  25.3826978  49.4509545   7.9240945  26.0852931  49.7797592
  11.3448948  16.2567156  55.4401491  11.8904908  16.9352242  55.4995460
  11.2865824  16.1154617  54.5803072  11.4164862  16.3359157  55.3213551
   4.4623022  23.7456222  50.8269843   4.5633385  22.9356576  51.1366971
   3.8664768  23.6513168  50.1969522   4.3895561  23.6121250  50.7796082
  13.1214016  17.6851763  46.3135219  13.0053542  18.4359449  46.7427357
  13.9169903  17.4275716  46.5631306  13.2218606  17.7586610  46.4139310
   4.3023762  28.6633811  52.2284699   4.9461217  29.1046975  52.6180858
   4.6280018  27.8587237  52.1414958   4.4455591  28.6099006  52.2730177
   5.0044342  21.6745786  47.6004561   5.3260183  22.2150993  46.9965869
   5.6516438  21.1042557  47.7326851   5.1470397  21.6704961  47.5311596
   7.0546050  13.6761781  47.6838948   7.7526214  13.8549908  48.1760411
   7.3698382  13.1532120  47.0609337   7.2041387  13.6255553  47.6640958
   7.2433985  20.0632226  47.6718739   7.6827621  19.4549326  48.1173512
   7.0938648  19.6839599  46.9004204   7.2855451  19.9170697  47.6237907
   4.7105628  18.6576238  54.8737565   5.3554631  18.1648681  54.5548513
   4.9507405  18.8001024  55.7003643   4.8416213  18.6053680  54.9487098
   7.2491720  21.5031143  54.5244457   7.5314962  20.7082549  54.3031213
   7.9777880  21.9811731  54.5449518   7.3981283  21.4565740  54.4947472
  10.8443322  18.4159407  44.6249508  10.7594617  19.2720374  44.7699077
  11.3327705  18.1403731  45.2931668  10.9032219  18.5016729  44.7451590
  12.4349321   5.0339700  50.0109833  12.1202762   5.7243179  50.4430255
  11.9176263   4.9784483  49.3095334  12.3113792   5.1274589  49.9706782
  11.7761755  15.0344201  46.1247244  11.2473226  15.2503835  46.7844550
  12.2986775  15.7280340  46.0448213  11.7750208  15.1687338  46.2102843
  17.2309808  20.6090506  51.4980288  16.4007511  20.8201149  51.6613705
  17.1819060  19.7827560  51.2222572  17.1016543  20.5180112  51.4817653
   3.6661363  18.9307418  44.9254711   3.0818578  19.4357449  45.3320575
   3.2631458  18.7049805  44.1851303   3.5200667  18.9715666  44.8759737
   5.2919545  23.4394360  54.3328197   4.7746487  23.0801775  53.7289506
   5.9893937  22.9156534  54.3434264   5.3185127  23.3092048  54.2458456
   8.9483137  23.8889174  60.2944371   9.0366483  23.7015314  61.1422581
   9.3772850  23.2426604  59.8949217   9.0245240  23.7652182  60.3616122
   6.5153597  23.1720334  59.2762033   5.9524432  22.7592944  59.8001694
   7.2774621  23.0973240  59.6955176   6.5448046  23.0997734  59.4155033
   8.1238577  15.1773070  43.4023632   8.3634581  15.3851054  42.5898975
   8.4454418  14.3730579  43.5112577   8.2075735  15.0887171  43.2984185
   2.0749589  25.1618355  51.8798663   2.7770168  24.6470344  51.9371419
   1.9947072  25.4892506  52.6845538   2.1673349  25.1332581  52.0071455
  16.7263766  13.2560906  55.2930709  15.8892187  13.3263093  55.5278304
  16.6951997  13.2585401  54.4205012  16.5982049  13.2671133  55.1990257
   1.4000364  21.3524707  51.3884271   2.2389263  21.5847640  51.4358032
   1.4312133  20.4829019  51.3191306   1.5282082  21.2581654  51.3848916
   2.0253067  21.7725582  55.6897576   2.5651292  21.6296713  56.3600949
   1.3423013  22.1722333  56.0581603   2.0045221  21.8105253  55.8431998
  11.4493952  17.4516583  50.8842601  12.2051467  17.8848097  50.9231510
  11.5556276  16.8021353  51.4577237  11.5764123  17.4194067  50.9740626
  14.4874123  21.2789860  51.6345004  14.0509355  21.2826603  52.3903975
  14.1537039  21.9595359  51.2024581  14.3736743  21.3802316  51.6825836
   9.0603197  23.3198193  62.9588154   9.8443613  23.4329041  63.3243896
   8.8599791  22.4939330  63.1546840   9.1469222  23.2144912  63.0422540
  14.4071606   8.3203688  53.8774432  15.0497514   8.3901793  54.4636347
  14.6594627   7.6532911  53.3753974  14.5393738   8.2330037  53.8901711
   1.3347959  12.7910958  42.4583756   0.6206136  12.5049137  42.8706189
   1.8191928  13.1307583  43.0990144   1.3007322  12.7992607  42.6139391
   9.2173590  25.2308295  56.6054610   8.4188836  24.9907795  56.8628478
   9.6659602  25.2822688  57.3521657   9.1648201  25.2030686  56.7539534
  17.6218469  17.9970780  50.5264641  18.2834903  17.4361449  50.4260549
  16.9809881  17.5022811  50.8517332  17.6247337  17.8407189  50.5596981
   8.5095277  21.2940911  42.8345564   8.9246426  20.9625935  42.1430060
   7.6787207  21.0609814  42.7065701   8.4483286  21.2112167  42.7136412
  13.9083300  19.0136162  50.2676630  14.1438889  19.1581361  49.4403480
  14.0572864  19.7778570  50.6608143  13.9649103  19.1475217  50.2040234
  15.7373757  17.8537828  48.1046234  16.0681974  18.3865469  47.4986328
  16.3106845  17.9076716  48.7608185  15.8707436  17.9407397  48.1124015
  10.9505646  15.7002731  48.7869814  11.0452500  16.4392025  49.2409439
  10.3264489  15.2720207  49.2204378  10.8714676  15.7464052  48.9177961
   9.2058120  18.8788944  59.4360095   9.7796981  18.2416188  59.5908659
   9.1272923  18.8793026  58.5669752   9.2791355  18.7854055  59.3306505
  11.2028667  17.5451471  42.0206766  11.1208830  17.6153658  42.8861753
  11.8408388  18.1081215  41.8290506  11.2848505  17.6390442  42.1196715
   4.5621838  17.3112209  51.4881292   4.3041083  16.4783944  51.4612591
   4.6170321  17.5369822  50.6473792   4.5321616  17.2209980  51.3601429
   9.6422888   9.4140660  51.5885385   8.9379215   8.9249845  51.7469304
   9.6907863   9.4263134  50.7173829   9.5452940   9.3430307  51.4824724
   3.5356550  14.8649971  51.9746187   2.9606142  15.0242140  52.6110148
   3.1592227  14.2285380  51.5114637   3.3959363  14.7947784  52.0000745
   7.2029839  13.3373321  56.8338565   6.8144272  12.9127538  56.1790756
   6.5384537  13.5855470  57.3415592   7.0476767  13.3112042  56.8126433
  16.8453108  13.0948325  49.6086395  16.5889673  12.2828267  49.4184278
  17.6882422  13.1025892  49.3816583  16.9319134  12.9760323  49.5471212
  11.0256201   7.0347949  54.3462549  11.4066712   6.3526120  54.7330424
  10.2219485   6.7457551  54.1638214  10.9632662   6.8914998  54.3766605
   8.3068777  17.5671925  45.0315372   9.1209416  17.8586818  44.9198144
   8.2427919  16.9131788  44.4573665   8.4171516  17.5137120  44.9304209
  14.5278268  20.2497921  59.4444948  14.2916905  19.4185986  59.3257008
  15.1721496  20.1983529  60.0299792  14.5872938  20.1195609  59.5130841
   4.1776686  21.0393443  50.1587684   4.8150633  20.8005190  50.7039478
   4.6031757  21.2430602  49.4240845   4.3352852  21.0344453  50.1304842
   4.8179501  16.2595732  44.4962574   5.2024653  16.0403439  45.2479119
   4.5691121  17.0858678  44.6263650   4.8381573  16.3493879  44.6263650
  15.5514688  20.0342370  55.5073242  15.2460505  20.7670427  55.8686558
  14.8320904  19.6280300  55.2266028  15.4002030  20.0824103  55.5186379
   6.5598158  21.5165865  51.8381470   6.6337166  21.3541037  52.6923320
   7.3767664  21.7056055  51.5941952   6.6914516  21.5202608  51.9279496
  21.2516480  16.6735371  54.8341587  21.1840981  16.6931330  53.9644173
  21.2372143  17.5165698  55.0597257  21.2395237  16.8009105  54.7394063
   5.1002743  24.4800608  46.5694944   5.3901042  24.0889590  45.8454171
   5.8306224  24.6617313  47.0100219   5.2509627  24.4494422  46.5277751
  19.0375098  15.4479757  53.1088181  19.5883019  14.8147826  53.3485273
  19.0219213  15.9795150  53.8003685  19.1160294  15.4328705  53.2467039
   5.6897488  19.2818354  57.6548074   5.1909182  19.9934122  57.7332963
   6.4997713  19.6019021  57.6166237   5.7353595  19.4345203  57.6604643
   3.0408659  26.4567991  49.6355094   2.8208954  26.1665345  50.4281761
   2.8203181  25.7982946  49.1073006   2.9756253  26.3167699  49.6744002
   1.9525606  18.5441307  51.9010795   1.6638855  17.9178778  52.4356523
   2.8208954  18.4861595  51.9675476   2.0385858  18.4428851  51.9901750
  12.7403504  13.6876091  52.2192777  12.3968270  12.9666426  52.5700027
  12.8396546  13.4789942  51.3771135  12.7045547  13.5500294  52.1464457
   5.2076615  27.8297381  48.4185786   5.8600673  27.2973823  48.6476812
   4.5102223  27.4766033  48.8053660   5.2007333  27.6986904  48.5097954
   2.1557879  20.1836558  47.8253160   2.9103847  20.5649597  48.0388623
   1.5628492  20.6347702  48.2799857   2.1794593  20.3065386  47.9236039
  13.2016533  20.1501795  47.7616765  13.7674566  20.8095005  47.6775308
  12.5544436  20.4951493  48.2333167  13.1895289  20.2983736  47.8189522
   3.4756106  21.3545120  53.1993276   2.9536860  21.4945411  53.8845140
   3.8630126  20.5955784  53.3895393   3.4559807  21.2630643  53.3294352
   9.6723111  23.0940579  47.1853844   9.4309787  22.3608440  46.7780909
   9.8524444  23.6427436  46.5320178   9.6630735  23.0662970  47.0284067
   4.9022432  18.3849139  48.5974767   4.7065214  18.9923873  48.0035070
   5.1256777  17.6917083  48.1166441   4.9057073  18.3726664  48.4390848
   3.3000962  15.2703877  48.7155635   4.0223614  15.4345035  48.2559441
   2.8208954  15.9913541  48.6094975   3.3364692  15.4002106  48.6321249
  11.2594469  11.6067675  54.0952320  10.4205570  11.6328954  53.8590583
  11.3298837  12.2538411  54.6757667  11.1462863  11.7063801  54.1461437
   0.9508578  17.6761949  57.8209775   1.4629675  17.9546202  57.1718535
   0.6644921  18.4151243  58.1872588   0.9843442  17.8264303  57.7799653
   9.7063748   8.5053052  48.8279936  10.4090100   8.3060801  48.3499894
   9.4407936   7.7328995  49.1348779   9.7710380   8.3616018  48.8025378
  15.1351993  16.8135662  51.3813562  15.0485968  16.9691088  52.2348341
  14.6802473  17.4573738  51.0072967  15.0555250  16.9311417  51.4520669
   9.0077809  14.1346409  50.0039121   8.7612523  14.0542160  50.8375910
   9.3362932  13.3499877  49.8101649   9.0199053  14.0072675  50.0986644
  12.9025858  20.8429769  53.7925903  12.7640217  21.5410814  54.2974645
  12.1225856  20.6878425  53.4362084  12.7669085  20.9229935  53.8152177
  11.2403943  17.1426144  60.0448284  11.2351982  16.2705960  60.0490711
  11.9464937  17.3414313  59.5717740  11.3448947  17.0430018  59.9755320
   4.9674836  16.8703128  59.4162104   5.1118212  17.4504336  58.7805214
   5.3150485  17.2479425  60.1211959   5.0402298  17.0123832  59.4261099
   7.1394754  16.0693296  57.1987236   6.3918068  16.2624311  56.7935514
   7.2936279  15.2438516  56.9611357   7.0517181  15.9758408  57.1032642
   4.0402591  25.0605900  56.2823131   4.1892155  24.5008816  55.6296536
   4.8202594  25.1397901  56.6655650   4.1776685  24.9891465  56.2420080
  14.3979231  20.2008022  44.5542402  14.0186040  19.4145160  44.5471691
  13.7345476  20.7494879  44.4114046  14.2437706  20.1652846  44.5323199
   6.5655892  25.2320543  57.5607622   6.4899563  24.5629353  58.1158410
   6.4945751  25.9338331  58.0748288   6.5436499  25.2365450  57.7184470
   7.2226139  23.7521541  48.3931228   7.9876030  23.4831185  48.0713892
   7.1204229  23.2671552  49.1101291   7.3207634  23.6411106  48.4511056
   5.2578909  11.9545951  54.9324464   4.4674984  11.7737411  55.2541800
   5.6539532  11.1772903  54.9154758   5.1995785  11.8133412  54.9777012
   9.7444800  20.7833725  40.3731177  10.5117785  20.8433850  39.9637029
   9.2976108  20.2114167  39.8887496   9.7918227  20.7070301  40.2408888
  10.6422595  19.5888381  52.6583910   9.9667597  19.3573613  53.1597297
  10.6514971  18.9809564  52.0326015  10.5441100  19.4647306  52.6400062
   7.7716739  14.4306210  59.4147963   7.7075880  15.2916166  59.2868099
   7.9113927  14.1138203  58.6143514   7.7832209  14.5106377  59.2776176
  12.6439330  22.4453513  44.8894088  12.7259167  23.2520500  44.5655539
  13.1289072  22.4649473  45.6134861  12.7276487  22.5674176  44.9480986
   6.4535833  17.1238349  53.5564166   6.0298082  17.3242848  52.8203184
   6.2780688  16.2767197  53.6688465   6.3646714  17.0287131  53.4637856
   5.9547526  28.6388862  56.0185623   6.4443457  27.9399652  55.8361287
   5.3831759  28.3412732  56.6061680   5.9432056  28.4915086  56.0786664
   1.7418278  17.6190401  48.9892138   1.8982897  17.5537204  49.8448130
   2.0818871  18.3938953  48.7770818   1.8151513  17.7239599  49.0846732
   8.2797422  16.9948284  47.8585501   8.8212968  16.4918665  48.3224122
   8.5943982  16.9413479  47.0474987   8.4061820  16.9127705  47.8069313
  12.1514530  21.2050932  64.9712414  12.9649395  20.9336081  65.1317546
  11.9909496  20.9058472  64.1672609  12.2484478  21.1205858  64.8757819
   6.4483872  22.3865636  45.1425529   6.5176693  21.5280174  45.2818530
   7.2272327  22.6037517  44.8144554   6.5736722  22.2918500  45.1142687
   9.4286692  11.8884589  57.9107802   9.6428661  11.2495503  57.3571156
   8.8120591  12.3330413  57.4815664   9.3692021  11.8594733  57.7658233
  10.8391360  24.8103337  49.3562023  10.4471152  24.5070052  48.6384889
  10.9944432  25.6472427  49.1666976  10.8044950  24.8887174  49.2218520
  11.5925780  13.4973654  58.8491109  10.7802462  13.1899544  58.9304282
  12.0515714  13.0172654  59.4133821  11.5406165  13.3810146  58.9445703
  11.0031035  21.3753326  49.2968053  10.6445689  21.5467969  50.0732086
  10.5169745  21.8366532  48.7396052  10.8789731  21.4692297  49.3293322
   5.7919400  17.0552491  41.8368288   6.0811925  17.8317374  42.1111862
   5.8791199  16.5441223  42.5382787   5.8473656  17.0944410  41.9810785
  12.1635774  22.2657222  60.2435254  12.8015494  21.7717418  59.9097710
  11.5209865  22.1934622  59.6587481  12.1630000  22.1816230  60.1077609
  13.8892774  14.1146368  54.8101170  13.4620382  14.0272717  54.0549269
  13.2518827  14.2224143  55.3956014  13.7322381  14.1179028  54.7846611
  12.2190030  22.9577030  56.8840611  13.0082409  22.6066095  57.0042692
  12.3933628  23.7713419  56.6217245  12.3610312  23.0262887  56.8628479
   1.9583341  16.3685756  53.9368400   1.1171347  16.2689630  54.1447294
   2.1673349  17.1381236  54.2882720   1.8648033  16.4677799  54.0195715
  11.0723855   6.9686587  51.4457029  11.2773448   6.9008895  52.2914026
  10.7450279   7.7745408  51.3778207  11.0539103   7.0772527  51.5616684
   5.7700006  14.2967155  53.1865997   5.4663143  13.7423143  53.7876405
   5.0679427  14.4759365  52.6994031   5.6216216  14.2411938  53.2035703
   4.8266103  11.6067675  47.7510699   5.1025837  10.8886587  47.3388267
   5.4264772  12.2052595  47.5431805   4.9559367  11.5888046  47.6591460
   3.8318357  21.5116876  57.8938095   3.7238712  21.5218938  58.7600153
   4.0414138  22.3371656  57.7043049   3.8468468  21.6357951  57.9942187
  14.3257542   7.5218351  50.9259795  13.7131856   8.0088753  51.3113527
  14.4221717   6.8461842  51.4697446  14.2495440   7.4936660  51.0638653
   8.3276623   9.2781192  46.0257294   8.7820370   9.4491753  46.7505139
   8.8016669   8.6649303  45.6255070   8.4644944   9.2132078  46.0731056
   1.8492149  18.7629518  55.3560033   1.2580082  19.4039016  55.3263048
   2.6113172  19.1867136  55.3291332   1.8740409  18.9205357  55.3475180
  17.9682570  18.5935288  56.3537311  18.0265694  19.0421937  57.0997287
  17.3349038  19.0034101  55.9167391  17.8833865  18.7209023  56.3989859
  11.6081665  24.2138830  52.7892057  11.4101354  24.7029644  52.0948268
  10.9869376  24.4180071  53.3676190  11.4869229  24.3155368  52.7715280
   5.6689643  15.9823727  47.1302301   6.4131688  16.3698003  47.3685251
   5.8150340  15.1381152  47.2942789   5.8000228  15.9154199  47.1896271
   8.6567519  11.5549200  53.0296221   8.1827473  11.0290962  53.5401532
   9.0285655  11.0078673  52.4611082   8.6417408  11.3965197  53.0211368
  14.9204250  16.6151576  54.4403001  14.6802473  15.7757991  54.4445428
  15.3996257  16.6951742  55.1643775  14.9556433  16.5032975  54.5477803
  10.5851019  12.4485755  46.0921974  10.0574037  12.5314499  45.4027683
  11.0446727  13.1903626  46.0886619  10.5752869  12.5706417  45.9896670
  16.9209437  13.3953033  52.3932260  16.6819207  13.3548867  51.5553045
  17.0843338  14.2424185  52.5197981  16.9099740  13.5145118  52.2885742
  13.5255467  17.7802982  58.3237305  14.2489666  17.3275509  58.1448325
  13.2605429  18.0607648  57.5409633  13.5936740  17.7553951  58.1816021
   2.3942335  12.3763156  55.0590185   1.7695405  12.3881548  54.4516137
   2.0587930  12.8523331  55.7081425   2.2527827  12.4481673  55.0646753
  10.1388101  21.0189318  45.2231631  10.8622300  21.4847431  45.0796205
   9.6988692  21.0862928  44.4729228  10.1803794  21.0973155  45.0916413
   9.3074256  17.8786860  56.4732321   8.6931250  17.3344911  56.7680956
   9.8241541  17.3651097  55.9938137   9.2929919  17.7223269  56.4456549
   8.5470554  18.9491130  54.2076619   8.1198162  18.3240849  53.7742055
   8.5395498  18.6666052  55.0335626   8.4829695  18.8143911  54.2656447
   6.8756263   9.8259885  54.4219153   6.8998750   9.2919997  53.7331933
   7.1267737   9.3177194  55.0844744   6.9166182   9.6720789  54.4183798
   4.5771949  15.0691213  56.0998796   3.7463879  15.2365031  55.8934045
   4.5223466  14.6927164  56.8847682   4.4461364  15.0380944  56.1847325
   2.9507993  13.3446805  46.6288914   3.0910954  13.8419269  47.3317556
   3.4490526  12.6433099  46.7703128   3.0449074  13.3148783  46.7540493
   2.9808215  14.2113916  43.9581491   3.6153295  14.8074341  43.8930953
   3.0633826  13.9117373  44.7727361   3.0864766  14.2554824  44.0684578
  15.9590781  16.7429393  56.8267855  16.5508621  17.3826644  56.8586053
  16.3949775  16.0452430  57.1159922  16.1109212  16.7347743  56.8748688
   4.5587198  10.1427891  43.9326933   4.8803039   9.6630974  43.2786195
   4.8214142  10.9527537  43.7417745   4.6453223  10.1917789  43.8082425
   7.7884171  21.1646765  57.4525749   7.2809262  21.7182612  57.8966380
   7.4910817  21.2255055  56.6344524   7.6689056  21.2553077  57.3974206
   9.9546353   9.5300085  56.2950412  10.3801425   9.0772611  55.6833938
   9.3403346   8.9760156  56.5715200   9.9274998   9.3814061  56.2455437
  10.3991951  25.0810023  45.3829693   9.6821261  24.9070885  44.9176930
  11.0498689  24.8462595  44.8505179  10.3893802  25.0205816  45.2358910
  12.9839922  13.9574612  49.1270998  12.3131112  14.5004314  48.9984063
  13.6779673  14.4269467  48.8852692  12.9868790  14.1072883  49.0726525
   7.0326656  26.0971324  54.3582756   6.8092310  25.3390153  54.7266782
   6.5436499  26.1269345  53.6363196   6.9270105  25.9893548  54.3059497
  13.1468050  10.4130495  52.0361371  13.4995660   9.9860218  52.7107170
  12.2882851  10.3281339  52.1662447  13.0717494  10.3375236  52.1556381
   1.8451735  13.0438015  50.0944217   1.1263724  13.4602148  50.3617081
   2.2164097  13.6092254  49.5435856   1.7943667  13.1887296  50.0527024
  11.1451316  13.6765864  55.9846213  11.1249243  13.4949159  56.8380992
  11.1930516  14.5477882  55.9605797  11.1485957  13.7782402  56.1069508
   9.0897645  20.2653056  61.9094690   9.0493500  19.6202733  61.3239846
   9.9020964  20.2089673  62.2220102   9.2040799  20.1612023  61.8691639
   5.6805113  26.3171782  51.8119841   5.2665512  25.6545912  51.4223682
   6.3652487  26.4649641  51.2915535   5.7203485  26.2412440  51.6776338
   9.0470407  25.4761867  52.5643457   8.6486690  25.5864137  51.7964277
   8.4321627  25.6843933  53.1470017   8.8969296  25.5235435  52.5374757
   7.6198309  12.0836015  45.4317597   7.0263148  12.4053011  44.8802164
   7.6573587  11.2377110  45.2238703   7.5372698  12.0060343  45.3200368
  14.5792110   5.5348907  52.9645683  14.0722975   4.8278047  52.8966861
  15.3759544   5.2042096  53.0946760  14.6219349   5.3822058  52.9744678
  10.4956126  12.0415519  48.8619347  10.2669819  12.0648221  48.0197705
  10.7554202  11.2172986  48.9814358  10.5002314  11.9231599  48.7544545
   3.5500888  10.5792066  50.1573543   4.0258254  10.9409145  49.5223724
   3.0489488  11.2348533  50.4373686   3.5466247  10.7286254  50.1050284
  16.7812250  20.0513834  45.9486548  17.1645856  20.8005190  46.1784645
  15.9856363  20.2979653  45.6898537  16.7206032  20.1983528  45.9444121
   5.5927541  12.7233265  43.5246927   5.9726506  12.7412895  42.7398041
   4.8520137  13.1687254  43.4037774   5.5396379  12.7915040  43.3910495
  13.2212832  11.0315457  49.1122505  13.2207058  10.8764113  49.9706782
  13.0169012  11.8778444  49.0563891  13.1912610  11.1336077  49.2310445
  10.9453684  15.7112958  52.7658712  11.4407349  14.9935953  52.7262733
  10.1353460  15.4083756  52.6513199  10.8997577  15.5610605  52.7432438
   6.3912295  19.5610772  44.9155717   5.5823618  19.2377445  44.8689026
   6.8987204  18.8543994  44.8483965   6.3461962  19.4092088  44.8986011
  13.0105503  18.4616646  55.4535841  13.4360574  17.9391068  54.9006266
  12.6462423  19.0597483  54.9324464  13.0192105  18.4726873  55.2944851
   2.6459583  26.7580863  54.2133187   2.9606142  27.5717252  54.2210968
   3.0552996  26.3731082  54.8815346   2.7527681  26.8209566  54.3137278
   9.5984102  22.1750910  51.7836999  10.0695280  22.8891173  51.9526984
   9.9344281  21.5749660  52.3196868   9.7179217  22.1922374  51.8869374
  11.6861087  23.7852224  63.9629071  11.7958052  22.9960784  64.3185818
  12.0151983  23.6958160  63.1603409  11.7513493  23.6558076  63.8971461
  10.2358049  21.9668844  58.5464691   9.6878995  21.3426728  58.2784756
  10.6971077  22.1563116  57.8308771  10.2225258  21.9027895  58.4015122
  13.0451913  10.0354199  55.9315883  12.4614902  10.5363405  55.5193451
  13.3656207   9.5283755  55.2980207  13.0065088  10.0346034  55.7774391
   5.5846712   8.9494794  46.2074558   6.4062406   9.1193106  45.9656253
   5.1216363   9.1042055  45.4840856   5.6377874   8.9976527  46.0646203
   9.8016375  22.9719917  55.0774032  10.6214749  22.8282883  55.3390328
   9.5210453  23.5966116  55.6190470   9.8813118  23.0430269  55.1961972
  26.2730025  30.6284769  48.0416909  26.2424030  31.4829405  48.2135178
  26.8711374  30.3280061  48.6003052  26.3567183  30.7101265  48.1491711
  19.4729710  29.7160420  52.7969839  18.6167606  29.8768918  52.8478956
  19.5197364  28.8452484  52.8174900  19.3528822  29.6111222  52.8075905
  22.7823427  35.9846945  62.4030295  23.4890194  35.4898976  62.5317230
  22.9711362  36.4256027  61.6732953  22.9151332  35.9765296  62.3139341
  19.3095810  39.6748507  43.9892618  18.9747178  40.3525429  43.5536840
  19.8222680  39.2853818  43.4009489  19.3361391  39.7173085  43.8379409
  18.8500101  41.6262776  49.9303729  19.2339480  42.1949674  49.3908505
  18.7859242  40.9012286  49.4509545  18.8973528  41.6038239  49.7797592
  22.3181531  31.7752464  55.4401491  22.8637491  32.4537550  55.4995460
  22.2598407  31.6339925  54.5803072  22.3897445  31.8544465  55.3213551
  15.4355606  39.2641530  50.8269843  15.5365969  38.4541884  51.1366971
  14.8397351  39.1698476  50.1969522  15.3628145  39.1306558  50.7796082
  24.0946600  33.2037071  46.3135219  23.9786126  33.9544757  46.7427357
  24.8902486  32.9461024  46.5631306  24.1951189  33.2771918  46.4139310
  15.2756346  44.1819119  52.2284699  15.9193801  44.6232283  52.6180858
  15.6012601  43.3772545  52.1414958  15.4188174  44.1284314  52.2730177
   8.6320650  35.2861816  50.4522177   8.3970835  34.4529469  50.3454446
   8.7706291  35.5666482  49.6383378   8.6176313  35.2045320  50.3164532
  10.9310738  27.4547547  53.3506485  10.3115769  26.8640194  53.1816499
  10.8294601  28.0458982  52.7170808  10.8248413  27.4551629  53.2311474
  15.9776925  37.1931094  47.6004561  16.2992766  37.7336301  46.9965869
  16.6249022  36.6227865  47.7326851  16.1202980  37.1890269  47.5311596
  18.0278633  29.1947089  47.6838948  18.7258798  29.3735216  48.1760411
  18.3430966  28.6717428  47.0609337  18.1773971  29.1440861  47.6640958
  10.6579871  30.9999829  55.5950054  10.5338568  31.5862274  56.2299872
  11.3098155  30.5060024  55.8962329  10.7353520  31.0138633  55.7335983
  18.2166569  35.5817534  47.6718739  18.6560204  34.9734634  48.1173512
  18.0671232  35.2024907  46.9004204  18.2588034  35.4356005  47.6237907
  15.6838212  34.1761546  54.8737565  16.3287214  33.6833989  54.5548513
  15.9239989  34.3186332  55.7003643  15.8148797  34.1238988  54.9487098
  18.2224303  37.0216451  54.5244457  18.5047546  36.2267857  54.3031213
  18.9510464  37.4997039  54.5449518  18.3713867  36.9751048  54.4947472
  16.2005497  24.5639485  51.7660222  15.8708827  25.0150629  51.0963921
  15.5250499  24.4855649  52.3133229  16.0515933  24.6190621  51.7483446
  21.8175905  33.9344715  44.6249508  21.7327200  34.7905682  44.7699077
  22.3060289  33.6589039  45.2931668  21.8764803  34.0202036  44.7451590
  23.4081905  20.5525008  50.0109833  23.0935346  21.2428487  50.4430255
  22.8908846  20.4969791  49.3095334  23.2846375  20.6459897  49.9706782
  22.7494339  30.5529509  46.1247244  22.2205810  30.7689143  46.7844550
  23.2719358  31.2465648  46.0448213  22.7482792  30.6872646  46.2102843
  14.6393946  34.4492726  44.9254711  14.0551162  34.9542757  45.3320575
  14.2364042  34.2235113  44.1851303  14.4933250  34.4900974  44.8759737
  10.1937975  40.1647487  51.7278383   9.7105553  40.8897977  51.7037967
  11.0061293  40.4623617  51.8388541  10.2428723  40.3149841  51.7405662
  16.2652129  38.9579668  54.3328197  15.7479071  38.5987083  53.7289506
  16.9626520  38.4341842  54.3434264  16.2917710  38.8277356  54.2458456
  19.9215721  39.4074482  60.2944371  20.0099067  39.2200622  61.1422581
  20.3505434  38.7611911  59.8949217  19.9977823  39.2837490  60.3616122
  17.4886181  38.6905642  59.2762033  16.9257016  38.2778252  59.8001694
  18.2507204  38.6158548  59.6955176  17.5180629  38.6183042  59.4155033
  19.0971161  30.6958378  43.4023632  19.3367164  30.9036362  42.5898975
  19.4187002  29.8915887  43.5112577  19.1808319  30.6072479  43.2984185
  14.4061451  22.6251774  47.2483170  15.1607419  22.9930091  47.0100220
  14.2288986  22.9991328  48.0162350  14.4915929  22.7349962  47.3268059
  13.0482172  40.6803663  51.8798663  13.7502752  40.1655652  51.9371419
  12.9679655  41.0077814  52.6845538  13.1405933  40.6517889  52.0071455
  27.6996350  28.7746214  55.2930709  26.8624771  28.8448401  55.5278304
  27.6684581  28.7770709  54.4205012  27.5714632  28.7856441  55.1990257
  14.0961079  30.9179250  61.0079078  14.2681582  30.8085145  61.8564359
  14.6330436  31.5633655  60.7710270  14.2006083  30.9971252  61.0984175
  12.7618516  25.0322093  43.9461283  12.5794089  25.2493974  43.1202276
  13.6244129  25.1461106  44.0019897  12.8623105  25.0811991  43.8315770
  12.3732948  36.8710015  51.3884271  13.2121847  37.1032948  51.4358032
  12.4044717  36.0014326  51.3191306  12.5014665  36.7766961  51.3848916
  12.9985651  37.2910890  55.6897576  13.5383876  37.1482021  56.3600949
  12.3155597  37.6907641  56.0581603  12.9777805  37.3290561  55.8431998
  18.4418235  22.0348503  46.9810307  19.1704395  21.8564458  46.5348463
  18.5313128  22.8766583  47.1917485  18.5624897  22.1332382  46.9463824
  22.4226536  32.9701891  50.8842601  23.1784051  33.4033405  50.9231510
  22.5288860  32.3206661  51.4577237  22.5496706  32.9379375  50.9740626
  25.4606707  36.7975168  51.6345004  25.0241939  36.8011911  52.3903975
  25.1269622  37.4780667  51.2024581  25.3469327  36.8987624  51.6825836
  20.0335780  38.8383501  62.9588154  20.8176197  38.9514349  63.3243896
  19.8332375  38.0124638  63.1546840  20.1201806  38.7330220  63.0422540
   8.4022796  33.5111181  55.8431998   8.1361211  32.6950298  56.0022988
   8.4161360  33.5564337  54.9727513   8.3647518  33.3968086  55.7385480
  25.3804190  23.8388996  53.8774432  26.0230098  23.9087101  54.4636347
  25.6327210  23.1718219  53.3753974  25.5126322  23.7515345  53.8901711
  12.3080543  28.3096265  42.4583756  11.5938720  28.0234445  42.8706189
  12.7924511  28.6492891  43.0990144  12.2739906  28.3177915  42.6139391
  13.1521402  27.0489559  58.4899006  12.4593199  26.5786539  58.7359737
  13.7681729  26.8227864  59.0640713  13.1405932  26.9456691  58.6108158
  20.1906174  40.7493603  56.6054610  19.3921419  40.5093103  56.8628478
  20.6392185  40.8007996  57.3521657  20.1380785  40.7215994  56.7539534
  19.4827861  36.8126219  42.8345564  19.8979009  36.4811243  42.1430060
  18.6519790  36.5795122  42.7065701  19.4215869  36.7297475  42.7136412
   8.8116209  34.2969960  53.1243742   8.6291783  34.2716846  52.2716034
   9.5465878  34.7668898  53.1632651   8.8930273  34.3631323  53.0041661
  24.8815884  34.5321470  50.2676630  25.1171473  34.6766669  49.4403480
  25.0305447  35.2963878  50.6608143  24.9381687  34.6660525  50.2040234
  11.8761961  31.0154963  59.6325851  12.6001933  31.0007994  60.1190746
  11.9778098  31.7250319  59.1347819  11.9980170  31.1179666  59.6304638
  26.7106340  33.3723136  48.1046234  27.0414557  33.9050776  47.4986328
  27.2839428  33.4262024  48.7608185  26.8440019  33.4592705  48.1124015
  19.2506910  34.4954048  64.4974798  18.4579891  34.8097560  64.6827418
  19.3655838  34.7105516  63.6595583  19.1502321  34.5737885  64.4013133
  21.9238229  31.2188039  48.7869814  22.0185084  31.9577333  49.2409439
  21.2997073  30.7905514  49.2204378  21.8447260  31.2649360  48.9177961
  20.1790703  34.3974252  59.4360095  20.7529565  33.7601496  59.5908659
  20.1005507  34.3978334  58.5669752  20.2523938  34.3039363  59.3306505
   8.7787120  31.1763461  53.2742809   9.3560622  31.0399912  53.9135054
   8.0801181  30.7199245  53.5288393   8.7608141  31.0885727  53.4065098
  22.1761251  33.0636779  42.0206766  22.0941413  33.1338966  42.8861753
  22.8140971  33.6266523  41.8290506  22.2581088  33.1575750  42.1196715
  15.5354422  32.8297517  51.4881292  15.2773666  31.9969252  51.4612591
  15.5902905  33.0555130  50.6473792  15.5054200  32.7395288  51.3601429
  20.6155472  24.9325967  51.5885385  19.9111799  24.4435153  51.7469304
  20.6640446  24.9448442  50.7173829  20.5185524  24.8615615  51.4824724
  14.5089134  30.3835279  51.9746187  13.9338725  30.5427448  52.6110148
  14.1324810  29.7470688  51.5114637  14.3691946  30.3133092  52.0000745
  18.1762423  28.8558629  56.8338565  17.7876855  28.4312846  56.1790756
  17.5117121  29.1040778  57.3415592  18.0209350  28.8297350  56.8126433
  27.8185692  28.6133633  49.6086395  27.5622257  27.8013575  49.4184278
  28.6615006  28.6211200  49.3816583  27.9051717  28.4945631  49.5471212
   4.2545953  30.0275354  49.9890627   4.3406205  29.6507222  50.7704157
   4.8821750  29.6535800  49.5110586   4.3602504  29.9160836  50.0336105
  21.9988784  22.5533257  54.3462549  22.3799296  21.8711428  54.7330424
  21.1952069  22.2642859  54.1638214  21.9365246  22.4100306  54.3766605
  19.2801361  33.0857233  45.0315372  20.0942000  33.3772126  44.9198144
  19.2160502  32.4317095  44.4573665  19.3904100  33.0322428  44.9304209
  25.5010851  35.7683229  59.4444948  25.2649488  34.9371294  59.3257008
  26.1454080  35.7168836  60.0299792  25.5605522  35.6380917  59.5130841
  15.1509269  36.5578751  50.1587684  15.7883216  36.3190498  50.7039478
  15.5764341  36.7615909  49.4240845  15.3085435  36.5529761  50.1304842
   9.8421912  38.7967087  54.0421988   9.8826057  39.0681938  53.2141768
  10.4016436  39.3208995  54.4579776   9.9305258  38.9142842  53.9813876
  15.7912084  31.7781040  44.4962574  16.1757237  31.5588747  45.2479119
  15.5423705  32.6043986  44.6263650  15.8114157  31.8679187  44.6263650
  17.5330741  37.0351173  51.8381470  17.6069749  36.8726345  52.6923320
  18.3500247  37.2241363  51.5941952  17.6647100  37.0387916  51.9279496
  11.2936498  37.3809036  48.8675914  10.4674616  37.6270773  48.7410193
  11.3548489  37.3021117  49.7337972  11.1810665  37.4053985  48.9764858
  13.5112522  23.4477977  49.8271354  12.6434947  23.5200576  49.8928963
  13.7987726  24.2500056  50.0159329  13.4252270  23.5772124  49.8646121
  22.6345410  23.5955836  58.1582676  23.3799002  23.4065647  57.7446101
  22.2182715  24.1214074  57.5996532  22.6830385  23.6457982  58.0147249
  16.6630072  34.8003662  57.6548074  16.1641766  35.5119430  57.7332963
  17.4730296  35.1204329  57.6166237  16.7086179  34.9530511  57.6604643
  14.0141242  41.9753299  49.6355094  13.7941538  41.6850653  50.4281761
  13.7935764  41.3168254  49.1073006  13.9488837  41.8353007  49.6744002
  12.9258190  34.0626615  51.9010795  12.6371438  33.4364086  52.4356523
  13.7941538  34.0046903  51.9675476  13.0118442  33.9614159  51.9901750
  23.7136087  29.2061399  52.2192777  23.3700853  28.4851734  52.5700027
  23.8129130  28.9975250  51.3771135  23.6778130  29.0685602  52.1464457
  16.1809198  43.3482689  48.4185786  16.8333256  42.8159131  48.6476812
  15.4834807  42.9951341  48.8053660  16.1739916  43.2172212  48.5097954
  13.1290463  35.7021866  47.8253160  13.8836431  36.0834905  48.0388623
  12.5361076  36.1533010  48.2799857  13.1527177  35.8250694  47.9236039
  24.1749117  35.6687103  47.7616765  24.7407149  36.3280313  47.6775308
  23.5277020  36.0136801  48.2333167  24.1627873  35.8169044  47.8189522
  15.5897130  27.6584707  62.9510373  14.7796906  27.9642486  62.8400215
  16.0671817  28.3790289  63.0662957  15.5400609  27.8099308  62.9517444
  14.4488690  36.8730428  53.1993276  13.9269443  37.0130719  53.8845140
  14.8362710  36.1141092  53.3895393  14.4292391  36.7815951  53.3294352
  11.4379874  26.9236236  47.2688230  11.1504669  26.5537507  46.5320178
  12.1250342  27.3931092  47.0071935  11.4968771  26.9383206  47.1203306
  20.6455695  38.6125887  47.1853844  20.4042371  37.8793747  46.7780909
  20.8257028  39.1612744  46.5320178  20.6363319  38.5848278  47.0284067
  15.8755015  33.9034447  48.5974767  15.6797798  34.5109181  48.0035070
  16.0989361  33.2102391  48.1166441  15.8789656  33.8911972  48.4390848
  14.2733545  30.7889185  48.7155635  14.9956197  30.9530343  48.2559441
  13.7941538  31.5098849  48.6094975  14.3097276  30.9187414  48.6321249
  22.2327053  27.1252983  54.0952320  21.3938153  27.1514262  53.8590583
  22.3031420  27.7723719  54.6757667  22.1195446  27.2249109  54.1461437
  11.9241162  33.1947257  57.8209775  12.4362259  33.4731510  57.1718535
  11.6377505  33.9336551  58.1872588  11.9576025  33.3449611  57.7799653
  20.6796331  24.0238360  48.8279936  21.3822684  23.8246109  48.3499894
  20.4140520  23.2514303  49.1348779  20.7442963  23.8801326  48.8025378
   9.0108068  27.7017449  48.1173511   9.1124205  28.5043610  48.4454487
   9.8063955  27.5004785  47.8196592   9.1435974  27.7903348  48.1208867
  15.4424887  25.2873646  57.8810817  15.2508084  25.3028780  58.7310240
  16.2923483  25.4837320  57.8577471  15.5400609  25.3187997  58.0034111
   9.8271800  27.8164627  55.8594633   9.6857292  26.9648568  55.9839141
  10.1112364  27.8593288  55.0356839   9.8479646  27.6964377  55.7562257
  19.9810393  29.6531717  50.0039121  19.7345107  29.5727468  50.8375910
  20.3095516  28.8685185  49.8101649  19.9931636  29.5257983  50.0986644
  23.8758442  36.3615077  53.7925903  23.7372801  37.0596122  54.2974645
  23.0958439  36.2063733  53.4362084  23.7401668  36.4415243  53.8152177
  22.2136527  32.6611452  60.0448284  22.2084565  31.7891268  60.0490711
  22.9197521  32.8599621  59.5717740  22.3181531  32.5615326  59.9755320
  15.9407420  32.3888436  59.4162104  16.0850796  32.9689644  58.7805214
  16.2883069  32.7664732  60.1211959  16.0134881  32.5309140  59.4261099
  18.1127337  31.5878604  57.1987236  17.3650651  31.7809619  56.7935514
  18.2668863  30.7623824  56.9611357  18.0249765  31.4943716  57.1032642
  15.0135175  40.5791208  56.2823131  15.1624739  40.0194123  55.6296536
  15.7935177  40.6583209  56.6655650  15.1509269  40.5076773  56.2420080
  25.3711814  35.7193330  44.5542402  24.9918623  34.9330468  44.5471691
  24.7078060  36.2680187  44.4114046  25.2170289  35.6838154  44.5323199
  17.5388476  40.7505850  57.5607622  17.4632147  40.0814661  58.1158410
  17.4678335  41.4523639  58.0748288  17.5169083  40.7550758  57.7184470
  18.3529114  25.4829155  58.0882640  18.8101729  26.2153129  58.2155432
  18.4285443  25.0595620  58.8469896  18.4320084  25.5286393  58.2183716
  10.5962106  25.7294975  59.1772083  10.0604295  25.1175333  59.4932851
  10.6579870  26.3043111  59.8305750  10.5257738  25.7241902  59.3207510
  22.8256440  18.6619030  51.9576483  22.9440008  19.1195493  51.2243785
  22.6518616  17.8564291  51.6712700  22.8175611  18.6112802  51.8077416
  18.1958723  39.2706849  48.3931228  18.9608614  39.0016493  48.0713892
  18.0936813  38.7856860  49.1101291  18.2940218  39.1596414  48.4511056
  16.2311492  27.4731259  54.9324464  15.4407567  27.2922719  55.2541800
  16.6272115  26.6958211  54.9154758  16.1728369  27.3318720  54.9777012
  21.6155179  35.1073689  52.6583910  20.9400180  34.8758921  53.1597297
  21.6247555  34.4994872  52.0326015  21.5173683  34.9832614  52.6400062
  18.7449323  29.9491518  59.4147963  18.6808464  30.8101474  59.2868099
  18.8846510  29.6323511  58.6143514  18.7564793  30.0291685  59.2776176
  17.4268416  32.6423657  53.5564166  17.0030666  32.8428156  52.8203184
  17.2513272  31.7952505  53.6688465  17.3379297  32.5472439  53.4637856
  16.9280110  44.1574170  56.0185623  17.4176040  43.4584959  55.8361287
  16.3564342  43.8598040  56.6061680  16.9164640  44.0100394  56.0786664
  12.7150861  33.1375709  48.9892138  12.8715481  33.0722511  49.8448130
  13.0551455  33.9124261  48.7770818  12.7884096  33.2424907  49.0846732
  19.2530006  32.5133592  47.8585501  19.7945552  32.0103973  48.3224122
  19.5676565  32.4598787  47.0474987  19.3794403  32.4313013  47.8069313
  23.1247113  36.7236240  64.9712414  23.9381979  36.4521388  65.1317546
  22.9642080  36.4243780  64.1672609  23.2217062  36.6391166  64.8757819
  17.4216456  37.9050944  45.1425529  17.4909276  37.0465482  45.2818530
  18.2004911  38.1222825  44.8144554  17.5469306  37.8103808  45.1142687
  20.4019275  27.4069897  57.9107802  20.6161245  26.7680811  57.3571156
  19.7853175  27.8515721  57.4815664  20.3424605  27.3780040  57.7658233
  21.8123943  40.3288645  49.3562023  21.4203735  40.0255360  48.6384889
  21.9677016  41.1657735  49.1666976  21.7777533  40.4072482  49.2218520
   9.2885123  30.3210659  49.3052905   9.6684088  30.7395204  48.6413173
   8.7140488  30.9024115  49.6121749   9.2596448  30.4688518  49.2529646
  22.5658363  29.0158962  58.8491109  21.7535045  28.7084852  58.9304282
  23.0248298  28.5357962  59.4133821  22.5138748  28.8995454  58.9445703
  21.9763618  36.8938634  49.2968053  21.6178273  37.0653277  50.0732086
  21.4902329  37.3551840  48.7396052  21.8522315  36.9877605  49.3293322
  19.7934004  20.5169832  52.8995145  18.9227562  20.4908554  52.8528454
  20.0474345  20.3447025  52.0820990  19.7027564  20.4879976  52.7715281
  16.7651984  32.5737799  41.8368288  17.0544508  33.3502682  42.1111862
  16.8523782  32.0626531  42.5382787  16.8206240  32.6129718  41.9810785
  19.6611871  30.4219033  63.6319811  20.1311502  31.0461150  64.0187685
  19.7073751  29.7536009  64.1913026  19.7379747  30.4153714  63.7719883
  16.8183145  22.5276061  54.3568615  16.3021633  21.8356252  54.4820194
  16.2577073  23.1946838  54.3031214  16.6589658  22.5239319  54.3674681
  18.8875378  23.0669021  56.1861468  18.5007131  23.0918052  56.9674997
  18.4008315  22.5010700  55.7335984  18.7587887  22.9864772  56.2349371
  23.1368357  37.7842530  60.2435254  23.7748078  37.2902726  59.9097710
  22.4942449  37.7119930  59.6587481  23.1362584  37.7001538  60.1077609
  24.8625358  29.6331676  54.8101170  24.4352966  29.5458024  54.0549269
  24.2251411  29.7409451  55.3956014  24.7054965  29.6364336  54.7846611
  18.5532520  19.9536006  58.4771727  19.1825638  20.4896306  58.1992798
  18.7218382  19.8613365  59.3285293  18.6710314  20.0197369  58.5620256
  18.3546435  24.7407201  60.7498139  19.1819864  24.4692350  60.8056753
  18.3754281  25.5368043  61.1061957  18.4799285  24.8186955  60.8113322
  23.1922614  38.4762338  56.8840611  23.9814992  38.1251403  57.0042692
  23.3666212  39.2898727  56.6217245  23.3342896  38.5448195  56.8628479
  12.9315925  31.8871064  53.9368400  12.0903931  31.7874938  54.1447294
  13.1405932  32.6566544  54.2882720  12.8380617  31.9863107  54.0195715
  10.4091491  29.5090601  51.7653150  10.0148189  29.5833613  50.9903260
   9.8531608  29.8948547  52.3161512  10.2694304  29.5772375  51.7320810
  22.0456438  22.4871895  51.4457029  22.2506032  22.4194203  52.2914026
  21.7182862  23.2930716  51.3778207  22.0271686  22.5957835  51.5616684
  16.7432589  29.8152463  53.1865997  16.4395727  29.2608451  53.7876405
  16.0412010  29.9944673  52.6994031  16.5948799  29.7597245  53.2035703
  15.7998686  27.1252983  47.7510699  16.0758421  26.4071895  47.3388267
  16.3997356  27.7237903  47.5431805  15.9291951  27.1073354  47.6591460
  14.8050940  37.0302184  57.8938095  14.6971295  37.0404246  58.7600153
  15.0146722  37.8556964  57.7043049  14.8201051  37.1543259  57.9942187
  25.2990126  23.0403659  50.9259795  24.6864440  23.5274061  51.3113527
  25.3954301  22.3647150  51.4697446  25.2228024  23.0121968  51.0638653
  19.3009207  24.7966500  46.0257294  19.7552954  24.9677061  46.7505139
  19.7749253  24.1834611  45.6255070  19.4377527  24.7317385  46.0731056
  12.8224732  34.2814826  55.3560033  12.2312666  34.9224324  55.3263048
  13.5845756  34.7052443  55.3291332  12.8472993  34.4390665  55.3475180
  13.2185355  25.4416824  56.0228050  13.6786837  25.5155753  56.7603174
  13.2641462  26.2398078  55.6727872  13.2935910  25.5710971  56.0800807
  14.8668705  26.1083519  60.5900077  14.4754270  25.4616866  61.0255855
  15.0354568  26.6994954  61.2094333  14.8339615  26.0997787  60.7462783
  22.5814249  39.7324138  52.7892057  22.3833937  40.2214952  52.0948268
  21.9601960  39.9365379  53.3676190  22.4601813  39.8340676  52.7715280
  16.6422227  31.5009035  47.1302301  17.3864272  31.8883311  47.3685251
  16.7882923  30.6566460  47.2942789  16.7732812  31.4339507  47.1896271
  18.5601802  23.2959294  52.1634163  17.7137847  23.4682101  52.0375513
  18.5572935  22.4908637  52.4999991  18.4348952  23.2020322  52.1945290
  19.6300103  27.0734508  53.0296221  19.1560057  26.5476270  53.5401532
  20.0018239  26.5263981  52.4611082  19.6149992  26.9150505  53.0211368
  10.0073133  29.0706015  58.3979766  10.8698746  28.9701724  58.3117096
   9.6764916  28.4900724  57.8365339  10.0858329  28.9697641  58.3025172
  21.5583602  27.9671063  46.0921974  21.0306621  28.0499807  45.4027683
  22.0179311  28.7088934  46.0886619  21.5485453  28.0891725  45.9896670
  27.8942020  28.9138341  52.3932260  27.6551790  28.8734175  51.5553045
  28.0575922  29.7609493  52.5197981  27.8832324  29.0330426  52.2885742
  24.4988051  33.2988290  58.3237305  25.2222249  32.8460817  58.1448325
  24.2338013  33.5792956  57.5409633  24.5669324  33.2739259  58.1816021
  13.3674919  27.8948464  55.0590185  12.7427989  27.9066856  54.4516137
  13.0320514  28.3708639  55.7081425  13.2260411  27.9666981  55.0646753
  13.5516668  26.2373582  41.1162870  13.2029472  26.8893307  41.5794419
  13.0713113  26.2230695  40.3886741  13.4286912  26.3316636  41.0773961
  10.0800594  35.9548924  56.4993949   9.5500519  35.2641363  56.5488924
  10.3525688  35.9459109  55.6706657  10.0425317  35.8516056  56.3841365
  21.1120685  36.5374626  45.2231631  21.8354884  37.0032739  45.0796205
  20.6721276  36.6048236  44.4729228  21.1536377  36.6158463  45.0916413
  20.2806840  33.3972168  56.4732321  19.6663833  32.8530219  56.7680956
  20.7974125  32.8836405  55.9938137  20.2662502  33.2408577  56.4456549
  19.5203137  34.4676438  54.2076619  19.0930745  33.8426157  53.7742055
  19.5128082  34.1851360  55.0335626  19.4562278  34.3329219  54.2656447
  12.6365664  29.5041611  57.2765053  12.7959151  28.7484936  57.6816775
  12.4558558  30.0532551  57.9305791  12.6331023  29.4735425  57.4327759
  20.5785967  21.6702847  57.8315843  20.0826529  21.8666521  57.1407409
  21.3355029  22.0695515  57.6604644  20.6172792  21.7580581  57.7035979
  17.8488847  25.3445193  54.4219153  17.8731334  24.8105305  53.7331933
  18.1000320  24.8362502  55.0844744  17.8898766  25.1906097  54.4183798
   5.3596437  32.6276688  53.8562297   5.2539886  32.5823532  52.9914381
   4.6096657  32.9730468  54.1376582   5.2332040  32.6717596  53.7699627
  14.1290169  24.0716011  53.8024897  14.1688541  24.5725218  54.5159605
  13.3039834  24.1626405  53.5330820  14.0129695  24.1597827  53.8675436
  16.3119782  33.6376751  61.9045192  15.4615413  33.7748465  62.0402837
  16.4747910  32.9040529  62.3492894  16.2103646  33.5490852  61.9900791
  15.5504533  30.5876521  56.0998796  14.7196462  30.7550339  55.8934045
  15.4956050  30.2112472  56.8847682  15.4193947  30.5566252  56.1847325
  13.3588316  24.0785414  61.7355207  13.9841019  23.5347547  62.0084639
  12.9038796  23.5980331  61.1662998  13.3836576  23.9274895  61.6916801
  13.9240576  28.8632113  46.6288914  14.0643537  29.3604577  47.3317556
  14.4223109  28.1618407  46.7703128  14.0181657  28.8334091  46.7540493
  13.9540799  29.7299224  43.9581491  14.5885878  30.3259649  43.8930953
  14.0366410  29.4302681  44.7727361  14.0597350  29.7740132  44.0684578
  26.9323365  32.2614701  56.8267855  27.5241205  32.9011952  56.8586053
  27.3682359  31.5637738  57.1159922  27.0841796  32.2533051  56.8748688
  15.5319782  25.6613199  43.9326933  15.8535623  25.1816281  43.2786195
  15.7946725  26.4712845  43.7417745  15.6185807  25.7103097  43.8082425
  18.7616754  36.6832073  57.4525749  18.2541845  37.2367920  57.8966380
  18.4643401  36.7440363  56.6344524  18.6421639  36.7738384  57.3974206
  20.9278937  25.0485393  56.2950412  21.3534008  24.5957919  55.6833938
  20.3135930  24.4945464  56.5715200  20.9007582  24.8999369  56.2455437
  10.4593787  31.9267064  47.2271037  10.9686016  32.5231572  47.6082343
  10.9328059  31.6593038  46.5447457  10.6037162  31.9752880  47.1825560
  21.3724535  40.5995331  45.3829693  20.6553844  40.4256193  44.9176930
  22.0231272  40.3647903  44.8505179  21.3626385  40.5391124  45.2358910
  19.3673159  21.5200493  49.7040989  18.7241477  21.3698139  50.2726128
  19.0272566  21.2742838  48.9390094  19.2218237  21.4612615  49.6744004
  23.9572506  29.4759920  49.1270998  23.2863696  30.0189622  48.9984063
  24.6512256  29.9454775  48.8852692  23.9601373  29.6258191  49.0726525
  18.0059240  41.6156632  54.3582756  17.7824894  40.8575461  54.7266782
  17.5169083  41.6454653  53.6363196  17.9002689  41.5078856  54.3059497
  24.1200633  25.9315803  52.0361371  24.4728243  25.5045526  52.7107170
  23.2615435  25.8466647  52.1662447  24.0450078  25.8560544  52.1556381
  12.8184318  28.5623323  50.0944217  12.0996307  28.9787455  50.3617081
  13.1896681  29.1277562  49.5435856  12.7676250  28.7072604  50.0527024
  22.1183899  29.1951172  55.9846213  22.0981826  29.0134467  56.8380992
  22.1663100  30.0663190  55.9605797  22.1218540  29.2967710  56.1069508
  20.0630229  35.7838364  61.9094690  20.0226084  35.1388041  61.3239846
  20.8753547  35.7274981  62.2220102  20.1773383  35.6797331  61.8691639
  16.6537697  41.8357090  51.8119841  16.2398095  41.1731220  51.4223682
  17.3385071  41.9834948  51.2915535  16.6936068  41.7597748  51.6776338
  20.0202991  40.9947175  52.5643457  19.6219274  41.1049445  51.7964277
  19.4054210  41.2029241  53.1470017  19.8701880  41.0420743  52.5374757
  18.5930893  27.6021323  45.4317597  17.9995732  27.9238319  44.8802164
  18.6306170  26.7562418  45.2238703  18.5105282  27.5245651  45.3200368
  25.5524693  21.0534215  52.9645683  25.0455558  20.3463355  52.8966861
  26.3492127  20.7227404  53.0946760  25.5951933  20.9007366  52.9744678
  21.4688709  27.5600827  48.8619347  21.2402402  27.5833529  48.0197705
  21.7286785  26.7358294  48.9814358  21.4734897  27.4416907  48.7544545
  15.7507938  29.4135300  58.4644447  15.2386841  28.8056483  58.8229479
  15.5787434  30.1291893  58.9318423  15.6497575  29.4298600  58.5860671
  10.5973652  27.8572876  61.1146809  10.4276243  28.5174250  60.5695016
  10.1539602  28.0679437  61.8359298  10.5072986  27.9858858  61.1408439
  14.5233472  26.0977374  50.1573543  14.9990838  26.4594453  49.5223724
  14.0222071  26.7533841  50.4373686  14.5198831  26.2471562  50.1050284
  27.7544833  35.5699142  45.9486548  28.1378439  36.3190498  46.1784645
  26.9588947  35.8164961  45.6898537  27.6938616  35.7168835  45.9444121
  19.6277008  27.3359545  60.9046703  20.1848438  27.1073354  60.2725168
  19.3038073  28.0965211  60.6281915  19.6623418  27.4143382  60.7703200
   7.4975717  30.7619741  56.3735299   6.9502436  30.0920387  56.4916167
   8.2868095  30.3949589  56.4378766   7.5327901  30.6084728  56.4003999
  17.3460125  30.4227198  61.8698710  18.0971452  30.7378875  62.1838264
  17.5382702  30.2206369  61.0432632  17.4851539  30.4394580  61.7942106
  16.5660125  28.2418573  43.5246927  16.9459090  28.2598203  42.7398041
  15.8252721  28.6872562  43.4037774  16.5128963  28.3100348  43.3910495
  24.1945415  26.5500765  49.1122505  24.1939642  26.3949421  49.9706782
  23.9901596  27.3963752  49.0563891  24.1645193  26.6521385  49.2310445
   6.2562686  29.9740549  53.5281322   6.0784448  29.5217158  54.2536238
   5.9681709  30.7766710  53.7119800   6.1875640  30.0263107  53.6624825
  21.9186268  31.2298266  52.7658712  22.4139933  30.5121261  52.7262733
  21.1086043  30.9269064  52.6513199  21.8730161  31.0795913  52.7432438
  17.3644879  35.0796080  44.9155717  16.5556202  34.7562753  44.8689026
  17.8719788  34.3729302  44.8483965  17.3194546  34.9277396  44.8986011
   7.9935156  32.5068273  50.6403081   7.1280676  32.4953963  50.5285852
   8.0933972  32.3198496  51.4874220   7.8809323  32.4774334  50.7492025
  23.9838086  33.9801954  55.4535841  24.4093158  33.4576376  54.9006266
  23.6195006  34.5782791  54.9324464  23.9924689  33.9912181  55.2944851
  13.6192166  42.2766171  54.2133187  13.9338725  43.0902560  54.2210968
  14.0285580  41.8916390  54.8815346  13.7260264  42.3394874  54.3137278
  20.5716686  37.6936218  51.7836999  21.0427864  38.4076481  51.9526984
  20.9076864  37.0934968  52.3196868  20.6911801  37.7107682  51.8869374
  22.6593670  39.3037531  63.9629071  22.7690636  38.5146092  64.3185818
  22.9884567  39.2143468  63.1603409  22.7246076  39.1743384  63.8971461
  17.4886181  22.4663689  58.7395093  17.6214086  21.6694682  59.0676069
  17.8731334  22.9930092  59.3193369  17.5642510  22.4263605  58.8738596
  21.2090632  37.4854152  58.5464691  20.6611578  36.8612036  58.2784756
  21.6703661  37.6748424  57.8308771  21.1957842  37.4213202  58.4015122
  20.5618536  19.3894015  55.3376187  19.7564500  19.2791744  55.6544025
  20.4325271  19.4906471  54.4806052  20.4238669  19.3877685  55.2584227
  24.0184497  25.5539507  55.9315883  23.4347485  26.0548713  55.5193451
  24.3388791  25.0469063  55.2980207  23.9797672  25.5531342  55.7774391
  16.5579296  24.4680102  46.2074558  17.3794990  24.6378414  45.9656253
  16.0948947  24.6227363  45.4840856  16.6110458  24.5161835  46.0646203
  15.1474628  22.4622864  56.9872987  15.6919041  22.1213991  57.5777329
  15.2011563  23.3208325  57.1294272  15.2363747  22.5378123  57.0954860
  10.9605186  36.2239280  53.8611795  11.5650044  36.1835114  53.2325616
  10.7532499  37.0710432  53.8915851  11.0194084  36.3427282  53.7727911
  20.7748958  38.4905225  55.0774032  21.5947332  38.3468191  55.3390328
  20.4943036  39.1151424  55.6190470  20.8545702  38.5615577  55.1961972
   6.1956469  35.2073897  53.7310718   6.0980747  34.3970169  54.0400775
   6.9785338  35.1865691  53.3456986   6.2972605  35.0840988  53.7197581
  30.4462294  45.2345728  52.7969839  29.5900189  45.3954226  52.8478956
  30.4929947  44.3637792  52.8174900  30.3261405  45.1296530  52.8075905
  24.8303433  54.7708446  48.5607071  24.0786333  54.3923984  48.3323116
  25.2789445  54.8026879  47.8125881  24.7853100  54.7194053  48.4164573
  33.7556010  51.5032253  62.4030295  34.4622777  51.0084284  62.5317230
  33.9443946  51.9441335  61.6732953  33.8883916  51.4950604  62.3139341
  30.2828393  55.1933815  43.9892618  29.9479762  55.8710737  43.5536840
  30.7955264  54.8039126  43.4009489  30.3093974  55.2358393  43.8379409
  29.8232685  57.1448084  49.9303729  30.2072064  57.7134982  49.3908505
  29.7591826  56.4197594  49.4509545  29.8706112  57.1223547  49.7797592
  33.2914115  47.2937772  55.4401491  33.8370075  47.9722858  55.4995460
  33.2330991  47.1525232  54.5803072  33.3630029  47.3729773  55.3213551
  26.4088190  54.7826838  50.8269843  26.5098552  53.9727192  51.1366971
  25.8129935  54.6883784  50.1969522  26.3360728  54.6491866  50.7796082
  26.2488929  59.7004427  52.2284699  26.8926385  60.1417591  52.6180858
  26.5745185  58.8957853  52.1414958  26.3920758  59.6469622  52.2730177
  19.6053234  50.8047124  50.4522177  19.3703418  49.9714777  50.3454446
  19.7438875  51.0851790  49.6383378  19.5908896  50.7230628  50.3164532
  21.9043321  42.9732855  53.3506485  21.2848353  42.3825502  53.1816499
  21.8027185  43.5644290  52.7170808  21.7980997  42.9736937  53.2311474
  26.9509509  52.7116402  47.6004561  27.2725350  53.2521609  46.9965869
  27.5981605  52.1413173  47.7326851  27.0935564  52.7075577  47.5311596
  21.6312454  46.5185137  55.5950054  21.5071151  47.1047582  56.2299872
  22.2830739  46.0245332  55.8962329  21.7086104  46.5323941  55.7335983
  29.1899152  51.1002842  47.6718739  29.6292788  50.4919942  48.1173512
  29.0403815  50.7210215  46.9004204  29.2320618  50.9541313  47.6237907
  26.6570795  49.6946854  54.8737565  27.3019798  49.2019297  54.5548513
  26.8972572  49.8371640  55.7003643  26.7881380  49.6424296  54.9487098
  29.1956887  52.5401759  54.5244457  29.4780130  51.7453165  54.3031213
  29.9243047  53.0182347  54.5449518  29.3446450  52.4936356  54.4947472
  32.7908489  49.4530023  44.6249508  32.7059784  50.3090990  44.7699077
  33.2792872  49.1774347  45.2931668  32.8497386  49.5387344  44.7451590
  25.6126530  49.9678034  44.9254711  25.0283745  50.4728065  45.3320575
  25.2096625  49.7420421  44.1851303  25.4665834  50.0086282  44.8759737
  21.1670559  55.6832795  51.7278383  20.6838137  56.4083285  51.7037967
  21.9793877  55.9808925  51.8388541  21.2161306  55.8335149  51.7405662
  27.2384713  54.4764976  54.3328197  26.7211654  54.1172391  53.7289506
  27.9359104  53.9527150  54.3434264  27.2650294  54.3462664  54.2458456
  30.8948305  54.9259790  60.2944371  30.9831650  54.7385930  61.1422581
  31.3238017  54.2797219  59.8949217  30.9710407  54.8022798  60.3616122
  28.4618764  54.2090950  59.2762033  27.8989599  53.7963560  59.8001694
  29.2239788  54.1343855  59.6955176  28.4913213  54.1368350  59.4155033
  24.0214756  56.1988971  51.8798663  24.7235335  55.6840960  51.9371419
  23.9412239  56.5263122  52.6845538  24.1138516  56.1703197  52.0071455
  25.0693662  46.4364558  61.0079078  25.2414166  46.3270453  61.8564359
  25.6063020  47.0818963  60.7710270  25.1738666  46.5156560  61.0984175
  23.3465531  52.3895323  51.3884271  24.1854431  52.6218256  51.4358032
  23.3777300  51.5199634  51.3191306  23.4747249  52.2952269  51.3848916
  23.9718234  52.8096198  55.6897576  24.5116459  52.6667329  56.3600949
  23.2888181  53.2092949  56.0581603  23.9510388  52.8475869  55.8431998
  33.3959119  48.4887199  50.8842601  34.1516634  48.9218713  50.9231510
  33.5021444  47.8391969  51.4577237  33.5229290  48.4564683  50.9740626
  36.4339290  52.3160476  51.6345004  35.9974522  52.3197218  52.3903975
  36.1002206  52.9965975  51.2024581  36.3201910  52.4172932  51.6825836
  31.0068364  54.3568809  62.9588154  31.7908780  54.4699657  63.3243896
  30.8064958  53.5309946  63.1546840  31.0934389  54.2515528  63.0422540
  19.3755379  49.0296489  55.8431998  19.1093795  48.2135606  56.0022988
  19.3893943  49.0749644  54.9727513  19.3380102  48.9153394  55.7385480
  24.1253986  42.5674867  58.4899006  23.4325782  42.0971847  58.7359737
  24.7414313  42.3413172  59.0640713  24.1138516  42.4641999  58.6108158
  31.1638757  56.2678911  56.6054610  30.3654003  56.0278411  56.8628478
  31.6124769  56.3193304  57.3521657  31.1113368  56.2401302  56.7539534
  30.4560444  52.3311527  42.8345564  30.8711593  51.9996551  42.1430060
  29.6252374  52.0980430  42.7065701  30.3948453  52.2482783  42.7136412
  19.7848793  49.8155268  53.1243742  19.6024366  49.7902154  52.2716034
  20.5198462  50.2854206  53.1632651  19.8662857  49.8816631  53.0041661
  22.8494545  46.5340271  59.6325851  23.5734517  46.5193302  60.1190746
  22.9510681  47.2435626  59.1347819  22.9712754  46.6364974  59.6304638
  30.2239494  50.0139356  64.4974798  29.4312475  50.3282868  64.6827418
  30.3388421  50.2290824  63.6595583  30.1234905  50.0923193  64.4013133
  31.1523287  49.9159560  59.4360095  31.7262149  49.2786804  59.5908659
  31.0738091  49.9163642  58.5669752  31.2256522  49.8224671  59.3306505
  19.7519703  46.6948769  53.2742809  20.3293206  46.5585220  53.9135054
  19.0533765  46.2384553  53.5288393  19.7340725  46.6071035  53.4065098
  26.5087005  48.3482825  51.4881292  26.2506250  47.5154560  51.4612591
  26.5635488  48.5740438  50.6473792  26.4786783  48.2580596  51.3601429
  25.4821718  45.9020587  51.9746187  24.9071309  46.0612756  52.6110148
  25.1057394  45.2655996  51.5114637  25.3424530  45.8318400  52.0000745
  29.1495006  44.3743936  56.8338565  28.7609439  43.9498154  56.1790756
  28.4849705  44.6226086  57.3415592  28.9941934  44.3482658  56.8126433
  15.2278536  45.5460662  49.9890627  15.3138788  45.1692530  50.7704157
  15.8554334  45.1721108  49.5110586  15.3335087  45.4346144  50.0336105
  30.2533945  48.6042541  45.0315372  31.0674583  48.8957434  44.9198144
  30.1893086  47.9502403  44.4573665  30.3636684  48.5507736  44.9304209
  36.4743435  51.2868537  59.4444948  36.2382072  50.4556602  59.3257008
  37.1186664  51.2354144  60.0299792  36.5338105  51.1566225  59.5130841
  26.1241853  52.0764058  50.1587684  26.7615800  51.8375806  50.7039478
  26.5496924  52.2801217  49.4240845  26.2818019  52.0715069  50.1304842
  20.8154495  54.3152395  54.0421988  20.8558640  54.5867246  53.2141768
  21.3749019  54.8394303  54.4579776  20.9037841  54.4328150  53.9813876
  26.9313208  40.5772763  64.2125158  26.6166649  41.3472326  63.9494721
  26.6103141  40.0143019  63.6277385  26.8372127  40.6083032  64.0866508
  37.4979855  51.0712986  55.5073242  37.1925672  51.8041043  55.8686558
  36.7786071  50.6650915  55.2266028  37.3467198  51.1194719  55.5186379
  28.5063325  52.5536481  51.8381470  28.5802333  52.3911653  52.6923320
  29.3232831  52.7426671  51.5941952  28.6379683  52.5573223  51.9279496
  22.2669081  52.8994344  48.8675914  21.4407199  53.1456081  48.7410193
  22.3281073  52.8206425  49.7337972  22.1543248  52.9239293  48.9764858
  24.4845105  38.9663285  49.8271354  23.6167531  39.0385884  49.8928963
  24.7720309  39.7685364  50.0159329  24.3984853  39.0957432  49.8646121
  33.6077994  39.1141144  58.1582676  34.3531586  38.9250955  57.7446101
  33.1915299  39.6399382  57.5996532  33.6562968  39.1643290  58.0147249
  27.0467910  55.5171224  46.5694944  27.3366209  55.1260205  45.8454171
  27.7771391  55.6987929  47.0100219  27.1974795  55.4865038  46.5277751
  27.6362656  50.3188970  57.6548074  27.1374349  51.0304738  57.7332963
  28.4462880  50.6389637  57.6166237  27.6818762  50.4715819  57.6604643
  24.9873826  57.4938607  49.6355094  24.7674121  57.2035961  50.4281761
  24.7668348  56.8353562  49.1073006  24.9221420  57.3538315  49.6744002
  23.8990773  49.5811923  51.9010795  23.6104022  48.9549394  52.4356523
  24.7674121  49.5232211  51.9675476  23.9851025  49.4799467  51.9901750
  27.1541782  58.8667997  48.4185786  27.8065840  58.3344439  48.6476812
  26.4567390  58.5136649  48.8053660  27.1472500  58.7357520  48.5097954
  24.1023047  51.2207174  47.8253160  24.8569015  51.6020213  48.0388623
  23.5093659  51.6718318  48.2799857  24.1259760  51.3436002  47.9236039
  35.1481700  51.1872411  47.7616765  35.7139733  51.8465620  47.6775308
  34.5009604  51.5322109  48.2333167  35.1360457  51.3354352  47.8189522
  26.5629714  43.1770014  62.9510373  25.7529489  43.4827794  62.8400215
  27.0404400  43.8975597  63.0662957  26.5133192  43.3284616  62.9517444
  25.4221273  52.3915735  53.1993276  24.9002027  52.5316027  53.8845140
  25.8095294  51.6326400  53.3895393  25.4024974  52.3001259  53.3294352
  22.4112457  42.4421544  47.2688230  22.1237253  42.0722815  46.5320178
  23.0982925  42.9116400  47.0071935  22.4701355  42.4568514  47.1203306
  31.6188278  54.1311195  47.1853844  31.3774954  53.3979055  46.7780909
  31.7989611  54.6798052  46.5320178  31.6095902  54.1033586  47.0284067
  26.8487599  49.4219755  48.5974767  26.6530381  50.0294489  48.0035070
  27.0721944  48.7287699  48.1166441  26.8522240  49.4097280  48.4390848
  25.2466129  46.3074492  48.7155635  25.9688781  46.4715651  48.2559441
  24.7674122  47.0284157  48.6094975  25.2829860  46.4372722  48.6321249
  33.2059636  42.6438291  54.0952320  32.3670737  42.6699570  53.8590583
  33.2764004  43.2909027  54.6757667  33.0928030  42.7434417  54.1461437
  22.8973746  48.7132565  57.8209775  23.4094842  48.9916818  57.1718535
  22.6110088  49.4521859  58.1872588  22.9308609  48.8634919  57.7799653
  19.9840652  43.2202757  48.1173511  20.0856788  44.0228918  48.4454487
  20.7796539  43.0190093  47.8196592  20.1168557  43.3088655  48.1208867
  26.4157471  40.8058953  57.8810817  26.2240668  40.8214088  58.7310240
  27.2656067  41.0022628  57.8577471  26.5133193  40.8373305  58.0034111
  20.8004384  43.3349935  55.8594633  20.6589876  42.4833876  55.9839141
  21.0844947  43.3778596  55.0356839  20.8212230  43.2149685  55.7562257
  34.8491025  51.8800384  53.7925903  34.7105384  52.5781430  54.2974645
  34.0691023  51.7249041  53.4362084  34.7134252  51.9600551  53.8152177
  33.1869110  48.1796760  60.0448284  33.1817149  47.3076576  60.0490711
  33.8930104  48.3784929  59.5717740  33.2914114  48.0800634  59.9755320
  26.9140004  47.9073744  59.4162104  27.0583379  48.4874952  58.7805214
  27.2615652  48.2850040  60.1211959  26.9867465  48.0494448  59.4261099
  29.0859921  47.1063912  57.1987236  28.3383235  47.2994926  56.7935514
  29.2401446  46.2809132  56.9611357  28.9982349  47.0129023  57.1032642
  25.9867759  56.0976516  56.2823131  26.1357322  55.5379431  55.6296536
  26.7667761  56.1768517  56.6655650  26.1241852  56.0262081  56.2420080
  28.5121059  56.2691158  57.5607622  28.4364730  55.5999969  58.1158410
  28.4410918  56.9708947  58.0748288  28.4901666  56.2736066  57.7184470
  29.3261698  41.0014463  58.0882640  29.7834312  41.7338437  58.2155432
  29.4018027  40.5780928  58.8469896  29.4052668  41.0471701  58.2183716
  21.5694689  41.2480283  59.1772083  21.0336879  40.6360641  59.4932851
  21.6312454  41.8228418  59.8305750  21.4990322  41.2427210  59.3207510
  29.1691306  54.7892157  48.3931228  29.9341197  54.5201801  48.0713892
  29.0669396  54.3042168  49.1101291  29.2672802  54.6781722  48.4511056
  27.2044076  42.9916567  54.9324464  26.4140151  42.8108027  55.2541800
  27.6004699  42.2143519  54.9154758  27.1460952  42.8504028  54.9777012
  32.5887762  50.6258997  52.6583910  31.9132764  50.3944229  53.1597297
  32.5980138  50.0180180  52.0326015  32.4906267  50.5017922  52.6400062
  29.7181906  45.4676826  59.4147963  29.6541047  46.3286782  59.2868099
  29.8579094  45.1508819  58.6143514  29.7297376  45.5476992  59.2776176
  34.5904497  53.4824129  44.8894088  34.6724334  54.2891115  44.5655539
  35.0754239  53.5020088  45.6134861  34.6741655  53.6044792  44.9480986
  28.4001000  48.1608965  53.5564166  27.9763249  48.3613464  52.8203184
  28.2245855  47.3137813  53.6688465  28.3111881  48.0657747  53.4637856
  27.9012694  59.6759478  56.0185623  28.3908624  58.9770267  55.8361287
  27.3296926  59.3783348  56.6061680  27.8897223  59.5285702  56.0786664
  23.6883445  48.6561017  48.9892138  23.8448064  48.5907819  49.8448130
  24.0284038  49.4309569  48.7770818  23.7616680  48.7610215  49.0846732
  30.2262590  48.0318900  47.8585501  30.7678135  47.5289281  48.3224122
  30.5409149  47.9784095  47.0474987  30.3526987  47.9498321  47.8069313
  34.0979697  52.2421548  64.9712414  34.9114562  51.9706696  65.1317546
  33.9374663  51.9429088  64.1672609  34.1949646  52.1576474  64.8757819
  28.3949039  53.4236252  45.1425529  28.4641860  52.5650790  45.2818530
  29.1737495  53.6408133  44.8144554  28.5201889  53.3289116  45.1142687
  31.3751859  42.9255205  57.9107802  31.5893829  42.2866119  57.3571156
  30.7585758  43.3701029  57.4815664  31.3157188  42.8965348  57.7658233
  32.7856527  55.8473953  49.3562023  32.3936319  55.5440668  48.6384889
  32.9409599  56.6843043  49.1666976  32.7510117  55.9257790  49.2218520
  20.2617707  45.8395967  49.3052905  20.6416671  46.2580512  48.6413173
  19.6873071  46.4209423  49.6121749  20.2329031  45.9873826  49.2529646
  33.5390947  44.5344270  58.8491109  32.7267629  44.2270160  58.9304282
  33.9980882  44.0543270  59.4133821  33.4871332  44.4180762  58.9445703
  32.9496202  52.4123942  49.2968053  32.5910856  52.5838585  50.0732086
  32.4634912  52.8737147  48.7396052  32.8254899  52.5062913  49.3293322
  30.6344455  45.9404341  63.6319811  31.1044086  46.5646458  64.0187685
  30.6806335  45.2721317  64.1913026  30.7112330  45.9339022  63.7719883
  29.8607962  38.5854329  56.1861468  29.4739715  38.6103360  56.9674997
  29.3740899  38.0196007  55.7335984  29.7320471  38.5050080  56.2349371
  34.1100941  53.3027838  60.2435254  34.7480662  52.8088033  59.9097710
  33.4675033  53.2305238  59.6587481  34.1095168  53.2186846  60.1077609
  29.5265103  35.4721314  58.4771727  30.1558221  36.0081614  58.1992798
  29.6950966  35.3798673  59.3285293  29.6442898  35.5382677  58.5620256
  29.3279018  40.2592509  60.7498139  30.1552448  39.9877658  60.8056753
  29.3486864  41.0553351  61.1061957  29.4531868  40.3372263  60.8113322
  34.1655198  53.9947646  56.8840611  34.9547576  53.6436711  57.0042692
  34.3398795  54.8084035  56.6217245  34.3075479  54.0633503  56.8628479
  23.9048508  47.4056372  53.9368400  23.0636515  47.3060246  54.1447294
  24.1138516  48.1751852  54.2882720  23.8113201  47.5048415  54.0195715
  21.3824075  45.0275909  51.7653150  20.9880773  45.1018921  50.9903260
  20.8264192  45.4133855  52.3161512  21.2426887  45.0957683  51.7320810
  27.7165173  45.3337771  53.1865997  27.4128310  44.7793759  53.7876405
  27.0144594  45.5129981  52.6994031  27.5681383  45.2782553  53.2035703
  25.7783524  52.5487492  57.8938095  25.6703879  52.5589554  58.7600153
  25.9879305  53.3742272  57.7043049  25.7933635  52.6728567  57.9942187
  23.7957316  49.8000134  55.3560033  23.2045249  50.4409632  55.3263048
  24.5578339  50.2237751  55.3291332  23.8205577  49.9575973  55.3475180
  24.1917939  40.9602132  56.0228050  24.6519420  41.0341061  56.7603174
  24.2374045  41.7583386  55.6727872  24.2668494  41.0896279  56.0800807
  25.8401288  41.6268827  60.5900077  25.4486854  40.9802174  61.0255855
  26.0087151  42.2180262  61.2094333  25.8072199  41.6183095  60.7462783
  33.5546832  55.2509446  52.7892057  33.3566521  55.7400260  52.0948268
  32.9334543  55.4550687  53.3676190  33.4334397  55.3525984  52.7715280
  27.6154811  47.0194343  47.1302301  28.3596855  47.4068619  47.3685251
  27.7615507  46.1751768  47.2942789  27.7465396  46.9524815  47.1896271
  20.9805717  44.5891323  58.3979766  21.8431330  44.4887032  58.3117096
  20.6497500  44.0086032  57.8365339  21.0590913  44.4882949  58.3025172
  24.3407503  43.4133772  55.0590185  23.7160573  43.4252164  54.4516137
  24.0053097  43.8893947  55.7081425  24.1992994  43.4852289  55.0646753
  21.0533178  51.4734232  56.4993949  20.5233103  50.7826671  56.5488924
  21.3258271  51.4644417  55.6706657  21.0157900  51.3701363  56.3841365
  32.0853269  52.0559934  45.2231631  32.8087467  52.5218047  45.0796205
  31.6453860  52.1233544  44.4729228  32.1268961  52.1343771  45.0916413
  31.2539424  48.9157476  56.4732321  30.6396417  48.3715527  56.7680956
  31.7706709  48.4021713  55.9938137  31.2395086  48.7593885  56.4456549
  30.4935721  49.9861746  54.2076619  30.0663329  49.3611465  53.7742055
  30.4860665  49.7036668  55.0335626  30.4294862  49.8514527  54.2656447
  23.6098248  45.0226919  57.2765053  23.7691735  44.2670244  57.6816775
  23.4291141  45.5717859  57.9305791  23.6063607  44.9920733  57.4327759
  31.5518551  37.1888155  57.8315843  31.0559112  37.3851829  57.1407409
  32.3087613  37.5880823  57.6604644  31.5905376  37.2765889  57.7035979
  28.8221430  40.8630501  54.4219153  28.8463918  40.3290613  53.7331933
  29.0732904  40.3547810  55.0844744  28.8631349  40.7091405  54.4183798
  16.3329020  48.1461996  53.8562297  16.2272469  48.1008840  52.9914381
  15.5829240  48.4915776  54.1376582  16.2064623  48.1902904  53.7699627
  25.1022753  39.5901319  53.8024897  25.1421124  40.0910526  54.5159605
  24.2772417  39.6811713  53.5330820  24.9862279  39.6783135  53.8675436
  27.2852366  49.1562059  61.9045192  26.4347996  49.2933773  62.0402837
  27.4480493  48.4225837  62.3492894  27.1836229  49.0676160  61.9900791
  26.5237116  46.1061829  56.0998796  25.6929046  46.2735647  55.8934045
  26.4688633  45.7297780  56.8847682  26.3926531  46.0751560  56.1847325
  24.3320899  39.5970722  61.7355207  24.9573603  39.0532855  62.0084639
  23.8771379  39.1165639  61.1662998  24.3569160  39.4460203  61.6916801
  29.7349338  52.2017381  57.4525749  29.2274429  52.7553228  57.8966380
  29.4375984  52.2625671  56.6344524  29.6154223  52.2923692  57.3974206
  31.9011520  40.5670701  56.2950412  32.3266592  40.1143227  55.6833938
  31.2868513  40.0130772  56.5715200  31.8740166  40.4184677  56.2455437
  21.4326370  47.4452372  47.2271037  21.9418600  48.0416880  47.6082343
  21.9060642  47.1778346  46.5447457  21.5769746  47.4938188  47.1825560
  32.3457118  56.1180639  45.3829693  31.6286428  55.9441501  44.9176930
  32.9963856  55.8833211  44.8505179  32.3358969  56.0576431  45.2358910
  28.9791823  57.1341939  54.3582756  28.7557478  56.3760769  54.7266782
  28.4901666  57.1639961  53.6363196  28.8735272  57.0264164  54.3059497
  23.7916902  44.0808631  50.0944217  23.0728891  44.4972763  50.3617081
  24.1629264  44.6462870  49.5435856  23.7408834  44.2257912  50.0527024
  33.0916483  44.7136480  55.9846213  33.0714410  44.5319775  56.8380992
  33.1395683  45.5848498  55.9605797  33.0951124  44.8153018  56.1069508
  31.0362813  51.3023672  61.9094690  30.9958667  50.6573349  61.3239846
  31.8486131  51.2460289  62.2220102  31.1505966  51.1982639  61.8691639
  27.6270280  57.3542398  51.8119841  27.2130679  56.6916528  51.4223682
  28.3117654  57.5020256  51.2915535  27.6668652  57.2783056  51.6776338
  30.9935574  56.5132483  52.5643457  30.5951857  56.6234753  51.7964277
  30.3786794  56.7214549  53.1470017  30.8434464  56.5606051  52.5374757
  26.7240521  44.9320608  58.4644447  26.2119424  44.3241791  58.8229479
  26.5520017  45.6477201  58.9318423  26.6230158  44.9483908  58.5860671
  21.5706236  43.3758184  61.1146809  21.4008826  44.0359558  60.5695016
  21.1272186  43.5864745  61.8359298  21.4805570  43.5044166  61.1408439
  30.6009592  42.8544853  60.9046703  31.1581022  42.6258662  60.2725168
  30.2770657  43.6150519  60.6281915  30.6356002  42.9328690  60.7703200
  18.4708301  46.2805049  56.3735299  17.9235020  45.6105695  56.4916167
  19.2600679  45.9134897  56.4378766  18.5060484  46.1270036  56.4003999
  28.3192709  45.9412506  61.8698710  29.0704036  46.2564183  62.1838264
  28.5115285  45.7391677  61.0432632  28.4584123  45.9579888  61.7942106
  17.2295270  45.4925857  53.5281322  17.0517031  45.0402466  54.2536238
  16.9414292  46.2952018  53.7119800  17.1608223  45.5448415  53.6624825
  32.8918851  46.7483574  52.7658712  33.3872516  46.0306569  52.7262733
  32.0818627  46.4454372  52.6513199  32.8462744  46.5981221  52.7432438
  28.3377463  50.5981388  44.9155717  27.5288785  50.2748061  44.8689026
  28.8452371  49.8914610  44.8483965  28.2927129  50.4462704  44.8986011
  18.9667740  48.0253581  50.6403081  18.1013259  48.0139271  50.5285852
  19.0666556  47.8383804  51.4874220  18.8541907  47.9959642  50.7492025
  34.9570670  49.4987262  55.4535841  35.3825742  48.9761684  54.9006266
  34.5927590  50.0968099  54.9324464  34.9657273  49.5097489  55.2944851
  24.5924750  57.7951479  54.2133187  24.9071309  58.6087868  54.2210968
  25.0018163  57.4101698  54.8815346  24.6992848  57.8580182  54.3137278
  31.5449269  53.2121526  51.7836999  32.0160448  53.9261789  51.9526984
  31.8809448  52.6120276  52.3196868  31.6644384  53.2292990  51.8869374
  33.6326254  54.8222839  63.9629071  33.7423219  54.0331400  64.3185818
  33.9617151  54.7328776  63.1603409  33.6978660  54.6928692  63.8971461
  28.4618764  37.9848997  58.7395093  28.5946670  37.1879990  59.0676069
  28.8463917  38.5115400  59.3193369  28.5375093  37.9448913  58.8738596
  32.1823216  53.0039460  58.5464691  31.6344162  52.3797344  58.2784756
  32.6436244  53.1933732  57.8308771  32.1690425  52.9398510  58.4015122
  34.9917080  41.0724815  55.9315883  34.4080069  41.5734021  55.5193451
  35.3121374  40.5654371  55.2980207  34.9530255  41.0716650  55.7774391
  26.1207211  37.9808172  56.9872987  26.6651624  37.6399299  57.5777329
  26.1744147  38.8393633  57.1294272  26.2096331  38.0563431  57.0954860
  21.9337770  51.7424588  53.8611795  22.5382627  51.7020422  53.2325616
  21.7265082  52.5895740  53.8915851  21.9926667  51.8612590  53.7727911
  31.7481542  54.0090533  55.0774032  32.5679916  53.8653499  55.3390328
  31.4675620  54.6336732  55.6190470  31.8278285  54.0800885  55.1961972
  17.1689052  50.7259205  53.7310718  17.0713330  49.9155477  54.0400775
  17.9517922  50.7050999  53.3456986  17.2705189  50.6026295  53.7197581
  48.2195192  61.6655385  48.0416909  48.1889197  62.5200021  48.2135178
  48.8176541  61.3650677  48.6003052  48.3032350  61.7471881  48.1491711
  41.4194877  60.7531036  52.7969839  40.5632773  60.9139534  52.8478956
  41.4662531  59.8823100  52.8174900  41.2993989  60.6481837  52.8075905
  35.8036017  70.2893753  48.5607071  35.0518916  69.9109292  48.3323116
  36.2522029  70.3212187  47.8125881  35.7585684  70.2379361  48.4164573
  44.7288594  67.0217561  62.4030295  45.4355361  66.5269592  62.5317230
  44.9176529  67.4626643  61.6732953  44.8616499  67.0135912  62.3139341
  41.2560977  70.7119123  43.9892618  40.9212345  71.3896045  43.5536840
  41.7687847  70.3224434  43.4009489  41.2826558  70.7543701  43.8379409
  40.7965268  72.6633392  49.9303729  41.1804647  73.2320290  49.3908505
  40.7324409  71.9382902  49.4509545  40.8438695  72.6408855  49.7797592
  44.2646698  62.8123080  55.4401491  44.8102658  63.4908166  55.4995460
  44.2063575  62.6710540  54.5803072  44.3362613  62.8915081  55.3213551
  37.3820773  70.3012146  50.8269843  37.4831136  69.4912500  51.1366971
  36.7862518  70.2069092  50.1969522  37.3093312  70.1677174  50.7796082
  46.0411767  64.2407687  46.3135219  45.9251293  64.9915373  46.7427357
  46.8367654  63.9831640  46.5631306  46.1416356  64.3142534  46.4139310
  37.2221513  75.2189735  52.2284699  37.8658968  75.6602899  52.6180858
  37.5477768  74.4143161  52.1414958  37.3653341  75.1654930  52.2730177
  30.5785817  66.3232432  50.4522177  30.3436002  65.4900085  50.3454446
  30.7171458  66.6037098  49.6383378  30.5641480  66.2415936  50.3164532
  32.8775905  58.4918163  53.3506485  32.2580937  57.9010810  53.1816499
  32.7759768  59.0829598  52.7170808  32.7713580  58.4922245  53.2311474
  37.9242092  68.2301710  47.6004561  38.2457934  68.7706917  46.9965869
  38.5714189  67.6598481  47.7326851  38.0668148  68.2260885  47.5311596
  39.9743801  60.2317705  47.6838948  40.6723965  60.4105832  48.1760411
  40.2896133  59.7088044  47.0609337  40.1239138  60.1811477  47.6640958
  32.6045038  62.0370445  55.5950054  32.4803735  62.6232890  56.2299872
  33.2563322  61.5430640  55.8962329  32.6818687  62.0509249  55.7335983
  40.1631736  66.6188150  47.6718739  40.6025371  66.0105250  48.1173512
  40.0136399  66.2395523  46.9004204  40.2053202  66.4726621  47.6237907
  37.6303379  65.2132161  54.8737565  38.2752381  64.7204605  54.5548513
  37.8705156  65.3556948  55.7003643  37.7613964  65.1609604  54.9487098
  40.1689470  68.0587067  54.5244457  40.4512713  67.2638473  54.3031213
  40.8975631  68.5367655  54.5449518  40.3179034  68.0121664  54.4947472
  38.1470664  55.6010101  51.7660222  37.8173994  56.0521245  51.0963921
  37.4715666  55.5226265  52.3133229  37.9981100  55.6561236  51.7483446
  43.7641072  64.9715331  44.6249508  43.6792368  65.8276298  44.7699077
  44.2525456  64.6959655  45.2931668  43.8229970  65.0572652  44.7451590
  44.6959506  61.5900125  46.1247244  44.1670977  61.8059759  46.7844550
  45.2184526  62.2836264  46.0448213  44.6947959  61.7243262  46.2102843
  50.1507559  67.1646430  51.4980288  49.3205262  67.3757073  51.6613705
  50.1016811  66.3383484  51.2222572  50.0214294  67.0736036  51.4817653
  36.5859113  65.4863342  44.9254711  36.0016329  65.9913373  45.3320575
  36.1829209  65.2605729  44.1851303  36.4398417  65.5271590  44.8759737
  32.1403142  71.2018103  51.7278383  31.6570720  71.9268593  51.7037967
  32.9526460  71.4994233  51.8388541  32.1893890  71.3520457  51.7405662
  38.2117296  69.9950284  54.3328197  37.6944238  69.6357699  53.7289506
  38.9091687  69.4712458  54.3434264  38.2382877  69.8647972  54.2458456
  41.8680888  70.4445098  60.2944371  41.9564234  70.2571238  61.1422581
  42.2970601  69.7982527  59.8949217  41.9442990  70.3208105  60.3616122
  39.4351348  69.7276258  59.2762033  38.8722183  69.3148868  59.8001694
  40.1972371  69.6529163  59.6955176  39.4645797  69.6553658  59.4155033
  41.0436328  61.7328994  43.4023632  41.2832332  61.9406978  42.5898975
  41.3652169  60.9286503  43.5112577  41.1273486  61.6443095  43.2984185
  36.3526618  53.6622390  47.2483170  37.1072586  54.0300707  47.0100220
  36.1754153  54.0361944  48.0162350  36.4381097  53.7720578  47.3268059
  34.9947339  71.7174279  51.8798663  35.6967919  71.2026268  51.9371419
  34.9144822  72.0448430  52.6845538  35.0871100  71.6888505  52.0071455
  49.6461517  59.8116830  55.2930709  48.8089938  59.8819017  55.5278304
  49.6149748  59.8141325  54.4205012  49.5179799  59.8227057  55.1990257
  36.0426246  61.9549866  61.0079078  36.2146750  61.8455760  61.8564359
  36.5795603  62.6004271  60.7710270  36.1471250  62.0341867  61.0984175
  34.7083683  56.0692709  43.9461283  34.5259256  56.2864589  43.1202276
  35.5709296  56.1831721  44.0019897  34.8088272  56.1182607  43.8315770
  34.3198115  67.9080631  51.3884271  35.1587014  68.1403564  51.4358032
  34.3509884  67.0384942  51.3191306  34.4479832  67.8137577  51.3848916
  34.9450818  68.3281506  55.6897576  35.4849043  68.1852637  56.3600949
  34.2620764  68.7278257  56.0581603  34.9242972  68.3661177  55.8431998
  44.3691703  64.0072507  50.8842601  45.1249218  64.4404021  50.9231510
  44.4754027  63.3577276  51.4577237  44.4961873  63.9749991  50.9740626
  47.4071874  67.8345784  51.6345004  46.9707106  67.8382526  52.3903975
  47.0734789  68.5151283  51.2024581  47.2934494  67.9358240  51.6825836
  41.9800947  69.8754117  62.9588154  42.7641364  69.9884965  63.3243896
  41.7797542  69.0495254  63.1546840  42.0666973  69.7700836  63.0422540
  30.3487963  64.5481797  55.8431998  30.0826378  63.7320914  56.0022988
  30.3626527  64.5934952  54.9727513  30.3112685  64.4338702  55.7385480
  47.3269357  54.8759612  53.8774432  47.9695265  54.9457716  54.4636347
  47.5792377  54.2088835  53.3753974  47.4591489  54.7885960  53.8901711
  34.2545710  59.3466881  42.4583756  33.5403887  59.0605061  42.8706189
  34.7389679  59.6863507  43.0990144  34.2205073  59.3548531  42.6139391
  35.0986569  58.0860175  58.4899006  34.4058366  57.6157155  58.7359737
  35.7146897  57.8598480  59.0640713  35.0871099  57.9827307  58.6108158
  42.1371341  71.7864219  56.6054610  41.3386587  71.5463719  56.8628478
  42.5857352  71.8378612  57.3521657  42.0845952  71.7586610  56.7539534
  50.5416220  64.5526704  50.5264641  51.2032654  63.9917372  50.4260549
  49.9007632  64.0578735  50.8517332  50.5445088  64.3963113  50.5596981
  41.4293028  67.8496835  42.8345564  41.8444176  67.5181859  42.1430060
  40.5984957  67.6165738  42.7065701  41.3681036  67.7668091  42.7136412
  30.7581377  65.3340576  53.1243742  30.5756950  65.3087462  52.2716034
  31.4931045  65.8039514  53.1632651  30.8395440  65.4001939  53.0041661
  46.8281051  65.5692086  50.2676630  47.0636640  65.7137285  49.4403480
  46.9770614  66.3334494  50.6608143  46.8846854  65.7031141  50.2040234
  33.8227128  62.0525579  59.6325851  34.5467101  62.0378610  60.1190746
  33.9243265  62.7620934  59.1347819  33.9445337  62.1550282  59.6304638
  48.6571507  64.4093752  48.1046234  48.9879725  64.9421392  47.4986328
  49.2304596  64.4632640  48.7608185  48.7905187  64.4963321  48.1124015
  41.1972078  65.5324664  64.4974798  40.4045058  65.8468176  64.6827418
  41.3121005  65.7476132  63.6595583  41.0967488  65.6108500  64.4013133
  43.8703397  62.2558655  48.7869814  43.9650251  62.9947949  49.2409439
  43.2462240  61.8276130  49.2204378  43.7912427  62.3019975  48.9177961
  42.1255870  65.4344867  59.4360095  42.6994732  64.7972112  59.5908659
  42.0470674  65.4348950  58.5669752  42.1989105  65.3409979  59.3306505
  30.7252287  62.2134077  53.2742809  31.3025789  62.0770528  53.9135054
  30.0266349  61.7569861  53.5288393  30.7073308  62.1256343  53.4065098
  44.1226418  64.1007395  42.0206766  44.0406580  64.1709582  42.8861753
  44.7606138  64.6637139  41.8290506  44.2046255  64.1946366  42.1196715
  37.4819589  63.8668133  51.4881292  37.2238833  63.0339867  51.4612591
  37.5368072  64.0925746  50.6473792  37.4519367  63.7765904  51.3601429
  42.5620639  55.9696583  51.5885385  41.8576966  55.4805769  51.7469304
  42.6105614  55.9819058  50.7173829  42.4650691  55.8986231  51.4824724
  36.4554301  61.4205895  51.9746187  35.8803892  61.5798063  52.6110148
  36.0789977  60.7841304  51.5114637  36.3157114  61.3503708  52.0000745
  40.1227590  59.8929244  56.8338565  39.7342023  59.4683462  56.1790756
  39.4582288  60.1411394  57.3415592  39.9674518  59.8667965  56.8126433
  49.7650859  59.6504249  49.6086395  49.5087424  58.8384191  49.4184278
  50.6080173  59.6581816  49.3816583  49.8516884  59.5316247  49.5471212
  26.2011120  61.0645970  49.9890627  26.2871372  60.6877838  50.7704157
  26.8286918  60.6906415  49.5110586  26.3067671  60.9531452  50.0336105
  43.9453951  53.5903873  54.3462549  44.3264463  52.9082044  54.7330424
  43.1417236  53.3013475  54.1638214  43.8830413  53.4470922  54.3766605
  41.2266528  64.1227849  45.0315372  42.0407167  64.4142742  44.9198144
  41.1625669  63.4687711  44.4573665  41.3369267  64.0693044  44.9304209
  47.4476018  66.8053845  59.4444948  47.2114656  65.9741910  59.3257008
  48.0919247  66.7539452  60.0299792  47.5070689  66.6751533  59.5130841
  37.0974436  67.5949366  50.1587684  37.7348383  67.3561114  50.7039478
  37.5229508  67.7986525  49.4240845  37.2550603  67.5900377  50.1304842
  31.7887079  69.8337703  54.0421988  31.8291224  70.1052554  53.2141768
  32.3481603  70.3579611  54.4579776  31.8770425  69.9513458  53.9813876
  37.7377251  62.8151656  44.4962574  38.1222404  62.5959363  45.2479119
  37.4888872  63.6414602  44.6263650  37.7579324  62.9049802  44.6263650
  37.9045792  56.0958071  64.2125158  37.5899233  56.8657634  63.9494721
  37.5835724  55.5328327  63.6277385  37.8104711  56.1268340  64.0866508
  48.4712439  66.5898294  55.5073242  48.1658256  67.3226351  55.8686558
  47.7518655  66.1836223  55.2266028  48.3199781  66.6380027  55.5186379
  39.4795908  68.0721789  51.8381470  39.5534917  67.9096961  52.6923320
  40.2965415  68.2611979  51.5941952  39.6112267  68.0758531  51.9279496
  54.1714231  63.2291295  54.8341587  54.1038731  63.2487254  53.9644173
  54.1569893  64.0721622  55.0597257  54.1592987  63.3565029  54.7394063
  33.2401665  68.4179652  48.8675914  32.4139783  68.6641389  48.7410193
  33.3013656  68.3391733  49.7337972  33.1275832  68.4424601  48.9764858
  35.4577689  54.4848593  49.8271354  34.5900114  54.5571192  49.8928963
  35.7452893  55.2870672  50.0159329  35.3717437  54.6142740  49.8646121
  44.5810577  54.6326452  58.1582676  45.3264170  54.4436263  57.7446101
  44.1647882  55.1584690  57.5996532  44.6295552  54.6828598  58.0147249
  38.0200494  71.0356532  46.5694944  38.3098792  70.6445513  45.8454171
  38.7503975  71.2173237  47.0100219  38.1707378  71.0050346  46.5277751
  51.9572848  62.0035681  53.1088181  52.5080770  61.3703750  53.3485273
  51.9416964  62.5351074  53.8003685  52.0358045  61.9884629  53.2467039
  38.6095239  65.8374278  57.6548074  38.1106933  66.5490046  57.7332963
  39.4195463  66.1574945  57.6166237  38.6551346  65.9901127  57.6604643
  35.9606410  73.0123915  49.6355094  35.7406705  72.7221269  50.4281761
  35.7400932  72.3538870  49.1073006  35.8954004  72.8723623  49.6744002
  34.8723357  65.0997231  51.9010795  34.5836605  64.4734702  52.4356523
  35.7406705  65.0417518  51.9675476  34.9583609  64.9984775  51.9901750
  45.6601255  60.2432014  52.2192777  45.3166020  59.5222350  52.5700027
  45.7594297  60.0345866  51.3771135  45.6243297  60.1056218  52.1464457
  38.1274365  74.3853304  48.4185786  38.7798423  73.8529747  48.6476812
  37.4299974  74.0321957  48.8053660  38.1205083  74.2542827  48.5097954
  35.0755630  66.7392482  47.8253160  35.8301598  67.1205521  48.0388623
  34.4826243  67.1903626  48.2799857  35.0992344  66.8621309  47.9236039
  46.1214284  66.7057718  47.7616765  46.6872316  67.3650928  47.6775308
  45.4742187  67.0507417  48.2333167  46.1093040  66.8539660  47.8189522
  37.5362297  58.6955322  62.9510373  36.7262073  59.0013102  62.8400215
  38.0136984  59.4160905  63.0662957  37.4865776  58.8469924  62.9517444
  36.3953857  67.9101043  53.1993276  35.8734610  68.0501335  53.8845140
  36.7827877  67.1511708  53.3895393  36.3757558  67.8186567  53.3294352
  33.3845041  57.9606852  47.2688230  33.0969837  57.5908123  46.5320178
  34.0715509  58.4301707  47.0071935  33.4433938  57.9753822  47.1203306
  42.5920862  69.6496503  47.1853844  42.3507538  68.9164363  46.7780909
  42.7722195  70.1983360  46.5320178  42.5828486  69.6218894  47.0284067
  37.8220182  64.9405062  48.5974767  37.6262965  65.5479797  48.0035070
  38.0454528  64.2473006  48.1166441  37.8254823  64.9282588  48.4390848
  36.2198712  61.8259800  48.7155635  36.9421364  61.9900958  48.2559441
  35.7406705  62.5469465  48.6094975  36.2562443  61.9558030  48.6321249
  44.1792220  58.1623599  54.0952320  43.3403321  58.1884878  53.8590583
  44.2496587  58.8094335  54.6757667  44.0660613  58.2619725  54.1461437
  33.8706329  64.2317873  57.8209775  34.3827426  64.5102126  57.1718535
  33.5842672  64.9707167  58.1872588  33.9041192  64.3820226  57.7799653
  48.0549744  63.3691586  51.3813562  47.9683718  63.5247012  52.2348341
  47.6000224  64.0129661  51.0072967  47.9753000  63.4867341  51.4520669
  30.9573235  58.7388065  48.1173511  31.0589372  59.5414226  48.4454487
  31.7529122  58.5375401  47.8196592  31.0901141  58.8273963  48.1208867
  37.3890054  56.3244261  57.8810817  37.1973252  56.3399396  58.7310240
  38.2388650  56.5207936  57.8577471  37.4865776  56.3558613  58.0034111
  31.7736968  58.8535243  55.8594633  31.6322459  58.0019184  55.9839141
  32.0577531  58.8963903  55.0356839  31.7944814  58.7334993  55.7562257
  41.9275560  60.6902333  50.0039121  41.6810274  60.6098084  50.8375910
  42.2560683  59.9055801  49.8101649  41.9396803  60.5628598  50.0986644
  45.8223609  67.3985692  53.7925903  45.6837968  68.0966738  54.2974645
  45.0423607  67.2434349  53.4362084  45.6866836  67.4785859  53.8152177
  44.1601694  63.6982068  60.0448284  44.1549732  62.8261884  60.0490711
  44.8662688  63.8970237  59.5717740  44.2646698  63.5985942  59.9755320
  37.8872587  63.4259052  59.4162104  38.0315963  64.0060260  58.7805214
  38.2348236  63.8035348  60.1211959  37.9600049  63.5679756  59.4261099
  40.0592505  62.6249220  57.1987236  39.3115819  62.8180234  56.7935514
  40.2134030  61.7994440  56.9611357  39.9714932  62.5314331  57.1032642
  36.9600342  71.6161823  56.2823131  37.1089906  71.0564739  55.6296536
  37.7400344  71.6953825  56.6655650  37.0974436  71.5447389  56.2420080
  47.3176982  66.7563946  44.5542402  46.9383790  65.9701084  44.5471691
  46.6543227  67.3050803  44.4114046  47.1635456  66.7208770  44.5323199
  39.4853643  71.7876466  57.5607622  39.4097314  71.1185277  58.1158410
  39.4143502  72.4894254  58.0748288  39.4634250  71.7921374  57.7184470
  40.2994282  56.5199771  58.0882640  40.7566896  57.2523745  58.2155432
  40.3750610  56.0966236  58.8469896  40.3785251  56.5657009  58.2183716
  32.5427273  56.7665590  59.1772083  32.0069462  56.1545949  59.4932851
  32.6045037  57.3413726  59.8305750  32.4722905  56.7612518  59.3207510
  40.1423890  70.3077465  48.3931228  40.9073781  70.0387109  48.0713892
  40.0401980  69.8227476  49.1101291  40.2405385  70.1967030  48.4511056
  38.1776659  58.5101875  54.9324464  37.3872734  58.3293335  55.2541800
  38.5737282  57.7328827  54.9154758  38.1193536  58.3689336  54.9777012
  42.6642550  67.3389649  40.3731177  43.4315535  67.3989774  39.9637029
  42.2173859  66.7670090  39.8887496  42.7115977  67.2626225  40.2408888
  43.5620346  66.1444305  52.6583910  42.8865348  65.9129537  53.1597297
  43.5712722  65.5365488  52.0326015  43.4638850  66.0203230  52.6400062
  40.6914490  60.9862134  59.4147963  40.6273631  61.8472090  59.2868099
  40.8311677  60.6694127  58.6143514  40.7029960  61.0662300  59.2776176
  45.5637080  69.0009437  44.8894088  45.6456918  69.8076423  44.5655539
  46.0486823  69.0205396  45.6134861  45.6474238  69.1230100  44.9480986
  39.3733584  63.6794273  53.5564166  38.9495833  63.8798772  52.8203184
  39.1978439  62.8323121  53.6688465  39.2844464  63.5843055  53.4637856
  38.8745277  75.1944786  56.0185623  39.3641207  74.4955575  55.8361287
  38.3029509  74.8968656  56.6061680  38.8629807  75.0471010  56.0786664
  34.6616029  64.1746325  48.9892138  34.8180648  64.1093127  49.8448130
  35.0016622  64.9494877  48.7770818  34.7349263  64.2795523  49.0846732
  41.1995173  63.5504208  47.8585501  41.7410719  63.0474589  48.3224122
  41.5141732  63.4969403  47.0474987  41.3259570  63.4683629  47.8069313
  45.0712281  67.7606855  64.9712414  45.8847146  67.4892004  65.1317546
  44.9107247  67.4614395  64.1672609  45.1682229  67.6761781  64.8757819
  39.3681623  68.9421560  45.1425529  39.4374443  68.0836098  45.2818530
  40.1470078  69.1593441  44.8144554  39.4934473  68.8474424  45.1142687
  42.3484443  58.4440513  57.9107802  42.5626412  57.8051427  57.3571156
  41.7318342  58.8886336  57.4815664  42.2889772  58.4150656  57.7658233
  43.7589110  71.3659261  49.3562023  43.3668902  71.0625976  48.6384889
  43.9142183  72.2028351  49.1666976  43.7242700  71.4443098  49.2218520
  31.2350290  61.3581275  49.3052905  31.6149255  61.7765820  48.6413173
  30.6605655  61.9394731  49.6121749  31.2061615  61.5059134  49.2529646
  44.5123531  60.0529578  58.8491109  43.7000212  59.7455468  58.9304282
  44.9713465  59.5728578  59.4133821  44.4603915  59.9366070  58.9445703
  43.9228785  67.9309250  49.2968053  43.5643440  68.1023893  50.0732086
  43.4367496  68.3922455  48.7396052  43.7987482  68.0248221  49.3293322
  38.7117151  63.6108415  41.8368288  39.0009676  64.3873298  42.1111862
  38.7988950  63.0997147  42.5382787  38.7671407  63.6500334  41.9810785
  41.6077038  61.4589649  63.6319811  42.0776669  62.0831766  64.0187685
  41.6538918  60.7906625  64.1913026  41.6844914  61.4524330  63.7719883
  40.8340545  54.1039637  56.1861468  40.4472298  54.1288668  56.9674997
  40.3473482  53.5381315  55.7335984  40.7053054  54.0235388  56.2349371
  45.0833525  68.8213146  60.2435254  45.7213245  68.3273341  59.9097710
  44.4407616  68.7490546  59.6587481  45.0827751  68.7372154  60.1077609
  46.8090525  60.6702292  54.8101170  46.3818133  60.5828640  54.0549269
  46.1716578  60.7780067  55.3956014  46.6520132  60.6734952  54.7846611
  40.4997687  50.9906622  58.4771727  41.1290805  51.5266922  58.1992798
  40.6683550  50.8983981  59.3285293  40.6175481  51.0567985  58.5620256
  40.3011602  55.7777817  60.7498139  41.1285031  55.5062966  60.8056753
  40.3219448  56.5738659  61.1061957  40.4264452  55.8557571  60.8113322
  45.1387781  69.5132954  56.8840611  45.9280159  69.1622019  57.0042692
  45.3131379  70.3269342  56.6217245  45.2808063  69.5818811  56.8628479
  34.8781092  62.9241680  53.9368400  34.0369098  62.8245554  54.1447294
  35.0871100  63.6937160  54.2882720  34.7845784  63.0233723  54.0195715
  32.3556659  60.5461217  51.7653150  31.9613356  60.6204229  50.9903260
  31.7996775  60.9319163  52.3161512  32.2159471  60.6142991  51.7320810
  38.6897757  60.8523079  53.1865997  38.3860894  60.2979067  53.7876405
  37.9877177  61.0315289  52.6994031  38.5413966  60.7967861  53.2035703
  37.7463854  58.1623599  47.7510699  38.0223588  57.4442511  47.3388267
  38.3462523  58.7608519  47.5431805  37.8757118  58.1443969  47.6591460
  36.7516108  68.0672800  57.8938095  36.6436462  68.0774862  58.7600153
  36.9611889  68.8927580  57.7043049  36.7666219  68.1913874  57.9942187
  41.2474374  55.8337116  46.0257294  41.7018121  56.0047677  46.7505139
  41.7214420  55.2205227  45.6255070  41.3842694  55.7688001  46.0731056
  34.7689900  65.3185442  55.3560033  34.1777833  65.9594940  55.3263048
  35.5310923  65.7423059  55.3291332  34.7938160  65.4761280  55.3475180
  35.1650522  56.4787440  56.0228050  35.6252004  56.5526369  56.7603174
  35.2106629  57.2768694  55.6727872  35.2401078  56.6081587  56.0800807
  36.8133872  57.1454135  60.5900077  36.4219437  56.4987482  61.0255855
  36.9819735  57.7365570  61.2094333  36.7804782  57.1368403  60.7462783
  50.8880321  65.1491212  56.3537311  50.9463445  65.5977861  57.0997287
  50.2546789  65.5590025  55.9167391  50.8031616  65.2764946  56.3989859
  44.5279416  70.7694754  52.7892057  44.3299104  71.2585568  52.0948268
  43.9067127  70.9735995  53.3676190  44.4066980  70.8711292  52.7715280
  38.5887394  62.5379650  47.1302301  39.3329439  62.9253927  47.3685251
  38.7348090  61.6937076  47.2942789  38.7197979  62.4710123  47.1896271
  41.5765270  58.1105124  53.0296221  41.1025224  57.5846886  53.5401532
  41.9483406  57.5634597  52.4611082  41.5615159  57.9521120  53.0211368
  31.9538300  60.1076630  58.3979766  32.8163913  60.0072340  58.3117096
  31.6230083  59.5271340  57.8365339  32.0323496  60.0068257  58.3025172
  47.8402001  63.1707499  54.4403001  47.6000223  62.3313915  54.4445428
  48.3194008  63.2507666  55.1643775  47.8754184  63.0588899  54.5477803
  43.5048770  59.0041678  46.0921974  42.9771788  59.0870422  45.4027683
  43.9644478  59.7459550  46.0886619  43.4950620  59.1262341  45.9896670
  49.8407188  59.9508957  52.3932260  49.6016958  59.9104791  51.5553045
  50.0041089  60.7980109  52.5197981  49.8297491  60.0701042  52.2885742
  46.4453218  64.3358906  58.3237305  47.1687417  63.8831432  58.1448325
  46.1803180  64.6163572  57.5409633  46.5134491  64.3109874  58.1816021
  35.3140086  58.9319080  55.0590185  34.6893156  58.9437471  54.4516137
  34.9785681  59.4079255  55.7081425  35.1725578  59.0037596  55.0646753
  35.4981835  57.2744198  41.1162870  35.1494639  57.9263923  41.5794419
  35.0178281  57.2601311  40.3886741  35.3752079  57.3687252  41.0773961
  32.0265762  66.9919540  56.4993949  31.4965686  66.3011979  56.5488924
  32.2990855  66.9829725  55.6706657  31.9890484  66.8886671  56.3841365
  43.0585852  67.5745242  45.2231631  43.7820051  68.0403355  45.0796205
  42.6186443  67.6418852  44.4729228  43.1001544  67.6529079  45.0916413
  42.2272007  64.4342784  56.4732321  41.6129000  63.8900834  56.7680956
  42.7439292  63.9207021  55.9938137  42.2127670  64.2779193  56.4456549
  41.4668304  65.5047054  54.2076619  41.0395912  64.8796773  53.7742055
  41.4593249  65.2221976  55.0335626  41.4027446  65.3699835  54.2656447
  34.5830831  60.5412227  57.2765053  34.7424318  59.7855551  57.6816775
  34.4023725  61.0903167  57.9305791  34.5796190  60.5106041  57.4327759
  42.5251134  52.7073463  57.8315843  42.0291696  52.9037137  57.1407409
  43.2820196  53.1066131  57.6604644  42.5637959  52.7951197  57.7035979
  39.7954014  56.3815809  54.4219153  39.8196501  55.8475921  53.7331933
  40.0465488  55.8733118  55.0844744  39.8363933  56.2276713  54.4183798
  27.3061604  63.6647304  53.8562297  27.2005053  63.6194148  52.9914381
  26.5561824  64.0101084  54.1376582  27.1797207  63.7088212  53.7699627
  36.0755336  55.1086627  53.8024897  36.1153708  55.6095834  54.5159605
  35.2505001  55.1997021  53.5330820  35.9594862  55.1968443  53.8675436
  38.2584949  64.6747367  61.9045192  37.4080580  64.8119081  62.0402837
  38.4213077  63.9411145  62.3492894  38.1568813  64.5861468  61.9900791
  37.4969700  61.6247137  56.0998796  36.6661629  61.7920955  55.8934045
  37.4421217  61.2483088  56.8847682  37.3659115  61.5936868  56.1847325
  35.3053483  55.1156030  61.7355207  35.9306186  54.5718163  62.0084639
  34.8503963  54.6350947  61.1662998  35.3301744  54.9645511  61.6916801
  35.8705743  59.9002728  46.6288914  36.0108705  60.3975193  47.3317556
  36.3688276  59.1989023  46.7703128  35.9646824  59.8704707  46.7540493
  35.9005966  60.7669839  43.9581491  36.5351045  61.3630264  43.8930953
  35.9831577  60.4673297  44.7727361  36.0062517  60.8110748  44.0684578
  48.8788532  63.2985317  56.8267855  49.4706372  63.9382567  56.8586053
  49.3147526  62.6008354  57.1159922  49.0306963  63.2903667  56.8748688
  37.4784949  56.6983815  43.9326933  37.8000790  56.2186897  43.2786195
  37.7411892  57.5083461  43.7417745  37.5650974  56.7473713  43.8082425
  40.7081922  67.7202689  57.4525749  40.2007013  68.2738536  57.8966380
  40.4108568  67.7810979  56.6344524  40.5886806  67.8109000  57.3974206
  42.8744104  56.0856009  56.2950412  43.2999175  55.6328535  55.6833938
  42.2601097  55.5316079  56.5715200  42.8472749  55.9369985  56.2455437
  32.4058954  62.9637680  47.2271037  32.9151183  63.5602188  47.6082343
  32.8793226  62.6963654  46.5447457  32.5502329  63.0123496  47.1825560
  43.3189702  71.6365947  45.3829693  42.6019012  71.4626809  44.9176930
  43.9696439  71.4018519  44.8505179  43.3091552  71.5761739  45.2358910
  45.9037673  60.5130535  49.1270998  45.2328863  61.0560238  48.9984063
  46.5977423  60.9825391  48.8852692  45.9066541  60.6628807  49.0726525
  39.9524407  72.6527247  54.3582756  39.7290061  71.8946077  54.7266782
  39.4634250  72.6825269  53.6363196  39.8467856  72.5449472  54.3059497
  46.0665801  56.9686419  52.0361371  46.4193411  56.5416142  52.7107170
  45.2080602  56.8837263  52.1662447  45.9915245  56.8931160  52.1556381
  34.7649485  59.5993939  50.0944217  34.0461475  60.0158071  50.3617081
  35.1361848  60.1648178  49.5435856  34.7141417  59.7443220  50.0527024
  44.0649066  60.2321788  55.9846213  44.0446994  60.0505083  56.8380992
  44.1128267  61.1033806  55.9605797  44.0683707  60.3338326  56.1069508
  42.0095396  66.8208980  61.9094690  41.9691251  66.1758657  61.3239846
  42.8218714  66.7645597  62.2220102  42.1238550  66.7167946  61.8691639
  38.6002864  72.8727706  51.8119841  38.1863262  72.2101836  51.4223682
  39.2850238  73.0205564  51.2915535  38.6401235  72.7968364  51.6776338
  41.9668158  72.0317791  52.5643457  41.5684441  72.1420061  51.7964277
  41.3519377  72.2399857  53.1470017  41.8167047  72.0791359  52.5374757
  40.5396060  58.6391939  45.4317597  39.9460899  58.9608935  44.8802164
  40.5771338  57.7933034  45.2238703  40.4570449  58.5616267  45.3200368
  43.4153876  58.5971443  48.8619347  43.1867569  58.6204145  48.0197705
  43.6751953  57.7728910  48.9814358  43.4200064  58.4787523  48.7544545
  37.6973105  60.4505916  58.4644447  37.1852008  59.8427099  58.8229479
  37.5252601  61.1662509  58.9318423  37.5962742  60.4669215  58.5860671
  32.5438820  58.8943491  61.1146809  32.3741410  59.5544866  60.5695016
  32.1004769  59.1050053  61.8359298  32.4538153  59.0229474  61.1408439
  36.4698639  57.1347989  50.1573543  36.9456005  57.4965069  49.5223724
  35.9687239  57.7904457  50.4373686  36.4663998  57.2842178  50.1050284
  49.7010001  66.6069757  45.9486548  50.0843606  67.3561114  46.1784645
  48.9054114  66.8535577  45.6898537  49.6403783  66.7539451  45.9444121
  41.5742175  58.3730161  60.9046703  42.1313605  58.1443970  60.2725168
  41.2503240  59.1335826  60.6281915  41.6088585  58.4513998  60.7703200
  29.4440884  61.7990357  56.3735299  28.8967604  61.1291003  56.4916167
  30.2333262  61.4320205  56.4378766  29.4793068  61.6455343  56.4003999
  39.2925292  61.4597814  61.8698710  40.0436619  61.7749491  62.1838264
  39.4847869  61.2576985  61.0432632  39.4316707  61.4765196  61.7942106
  38.5125292  59.2789189  43.5246927  38.8924257  59.2968818  42.7398041
  37.7717888  59.7243178  43.4037774  38.4594130  59.3470964  43.3910495
  46.1410583  57.5871380  49.1122505  46.1404809  57.4320037  49.9706782
  45.9366763  58.4334367  49.0563891  46.1110360  57.6892001  49.2310445
  28.2027854  61.0111165  53.5281322  28.0249615  60.5587774  54.2536238
  27.9146876  61.8137326  53.7119800  28.1340807  61.0633723  53.6624825
  43.8651435  62.2668882  52.7658712  44.3605100  61.5491877  52.7262733
  43.0551210  61.9639680  52.6513199  43.8195328  62.1166528  52.7432438
  39.3110046  66.1166695  44.9155717  38.5021369  65.7933369  44.8689026
  39.8184955  65.4099918  44.8483965  39.2659713  65.9648012  44.8986011
  29.9400323  63.5438889  50.6403081  29.0745843  63.5324579  50.5285852
  30.0399139  63.3569111  51.4874220  29.8274490  63.5144950  50.7492025
  45.9303254  65.0172570  55.4535841  46.3558325  64.4946992  54.9006266
  45.5660173  65.6153407  54.9324464  45.9389856  65.0282797  55.2944851
  35.5657333  73.3136787  54.2133187  35.8803892  74.1273176  54.2210968
  35.9750747  72.9287006  54.8815346  35.6725431  73.3765490  54.3137278
  42.5181853  68.7306834  51.7836999  42.9893031  69.4447097  51.9526984
  42.8542031  68.1305584  52.3196868  42.6376968  68.7478298  51.8869374
  44.6058838  70.3408147  63.9629071  44.7155803  69.5516708  64.3185818
  44.9349734  70.2514084  63.1603409  44.6711243  70.2114000  63.8971461
  39.4351348  53.5034305  58.7395093  39.5679254  52.7065298  59.0676069
  39.8196501  54.0300708  59.3193369  39.5107677  53.4634221  58.8738596
  43.1555799  68.5224768  58.5464691  42.6076745  67.8982652  58.2784756
  43.6168828  68.7119040  57.8308771  43.1423009  68.4583818  58.4015122
  45.9649664  56.5910123  55.9315883  45.3812652  57.0919329  55.5193451
  46.2853958  56.0839679  55.2980207  45.9262839  56.5901958  55.7774391
  38.5044463  55.5050717  46.2074558  39.3260157  55.6749030  45.9656253
  38.0414114  55.6597978  45.4840856  38.5575625  55.5532450  46.0646203
  37.0939795  53.4993480  56.9872987  37.6384208  53.1584606  57.5777329
  37.1476730  54.3578941  57.1294272  37.1828914  53.5748739  57.0954860
  32.9070353  67.2609896  53.8611795  33.5115211  67.2205730  53.2325616
  32.6997666  68.1081048  53.8915851  32.9659251  67.3797898  53.7727911
  42.7214126  69.5275841  55.0774032  43.5412499  69.3838807  55.3390328
  42.4408203  70.1522040  55.6190470  42.8010869  69.5986193  55.1961972
  28.1421636  66.2444513  53.7310718  28.0445914  65.4340785  54.0400775
  28.9250505  66.2236307  53.3456986  28.2437772  66.1211603  53.7197581
  59.1927776  77.1840692  48.0416909  59.1621780  78.0385329  48.2135178
  59.7909125  76.8835985  48.6003052  59.2764934  77.2657189  48.1491711
  52.3927461  76.2716344  52.7969839  51.5365356  76.4324842  52.8478956
  52.4395115  75.4008407  52.8174900  52.2726572  76.1667145  52.8075905
  55.2379282  78.3308387  55.4401491  55.7835242  79.0093474  55.4995460
  55.1796158  78.1895848  54.5803072  55.3095196  78.4100389  55.3213551
  57.0144351  79.7592995  46.3135219  56.8983876  80.5100681  46.7427357
  57.8100237  79.5016948  46.5631306  57.1148940  79.8327841  46.4139310
  43.8508488  74.0103471  53.3506485  43.2313520  73.4196118  53.1816499
  43.7492352  74.6014906  52.7170808  43.7446164  74.0107553  53.2311474
  48.8974676  83.7487018  47.6004561  49.2190517  84.2892225  46.9965869
  49.5446773  83.1783789  47.7326851  49.0400731  83.7446193  47.5311596
  50.9476384  75.7503013  47.6838948  51.6456549  75.9291140  48.1760411
  51.2628717  75.2273352  47.0609337  51.0971721  75.6996785  47.6640958
  43.5777621  77.5555752  55.5950054  43.4536318  78.1418198  56.2299872
  44.2295906  77.0615948  55.8962329  43.6551271  77.5694557  55.7335983
  51.1364319  82.1373458  47.6718739  51.5757955  81.5290558  48.1173512
  50.9868982  81.7580831  46.9004204  51.1785785  81.9911929  47.6237907
  48.6035962  80.7317469  54.8737565  49.2484965  80.2389912  54.5548513
  48.8437740  80.8742256  55.7003643  48.7346548  80.6794912  54.9487098
  51.1422054  83.5772375  54.5244457  51.4245297  82.7823781  54.3031213
  51.8708214  84.0552963  54.5449518  51.2911618  83.5306972  54.4947472
  49.1203248  71.1195409  51.7660222  48.7906578  71.5706553  51.0963921
  48.4448249  71.0411573  52.3133229  48.9713684  71.1746544  51.7483446
  54.7373656  80.4900639  44.6249508  54.6524951  81.3461605  44.7699077
  55.2258039  80.2144963  45.2931668  54.7962553  80.5757960  44.7451590
  56.3279655  67.1080932  50.0109833  56.0133096  67.7984411  50.4430255
  55.8106597  67.0525714  49.3095334  56.2044126  67.2015821  49.9706782
  55.6692089  77.1085433  46.1247244  55.1403561  77.3245067  46.7844550
  56.1917109  77.8021571  46.0448213  55.6680542  77.2428570  46.2102843
  47.5591697  81.0048650  44.9254711  46.9748912  81.5098681  45.3320575
  47.1561792  80.7791037  44.1851303  47.4131001  81.0456898  44.8759737
  52.0168911  77.2514302  43.4023632  52.2564915  77.4592286  42.5898975
  52.3384752  76.4471811  43.5112577  52.1006069  77.1628403  43.2984185
  47.3259202  69.1807698  47.2483170  48.0805170  69.5486015  47.0100220
  47.1486736  69.5547252  48.0162350  47.4113680  69.2905885  47.3268059
  60.6194100  75.3302138  55.2930709  59.7822522  75.4004325  55.5278304
  60.5882331  75.3326633  54.4205012  60.4912383  75.3412365  55.1990257
  47.0158829  77.4735174  61.0079078  47.1879333  77.3641068  61.8564359
  47.5528187  78.1189579  60.7710270  47.1203833  77.5527175  61.0984175
  45.6816266  71.5878017  43.9461283  45.4991840  71.8049897  43.1202276
  46.5441879  71.7017029  44.0019897  45.7820856  71.6367914  43.8315770
  51.3615986  68.5904427  46.9810307  52.0902146  68.4120382  46.5348463
  51.4510878  69.4322507  47.1917485  51.4822648  68.6888306  46.9463824
  55.3424286  79.5257815  50.8842601  56.0981801  79.9589329  50.9231510
  55.4486611  78.8762584  51.4577237  55.4694457  79.4935298  50.9740626
  41.3220546  80.0667105  55.8431998  41.0558962  79.2506221  56.0022988
  41.3359111  80.1120260  54.9727513  41.2845269  79.9524010  55.7385480
  58.3001940  70.3944920  53.8774432  58.9427849  70.4643024  54.4636347
  58.5524961  69.7274143  53.3753974  58.4324072  70.3071268  53.8901711
  45.2278293  74.8652189  42.4583756  44.5136471  74.5790369  42.8706189
  45.7122262  75.2048815  43.0990144  45.1937657  74.8733839  42.6139391
  46.0719153  73.6045483  58.4899006  45.3790950  73.1342463  58.7359737
  46.6879480  73.3783788  59.0640713  46.0603683  73.5012615  58.6108158
  52.4025611  83.3682143  42.8345564  52.8176760  83.0367167  42.1430060
  51.5717541  83.1351045  42.7065701  52.3413620  83.2853399  42.7136412
  41.7313960  80.8525884  53.1243742  41.5489533  80.8272770  52.2716034
  42.4663629  81.3224822  53.1632651  41.8128024  80.9187246  53.0041661
  57.8013634  81.0877394  50.2676630  58.0369223  81.2322593  49.4403480
  57.9503198  81.8519802  50.6608143  57.8579438  81.2216449  50.2040234
  44.7959712  77.5710887  59.6325851  45.5199684  77.5563918  60.1190746
  44.8975848  78.2806242  59.1347819  44.9177921  77.6735590  59.6304638
  59.6304091  79.9279060  48.1046234  59.9612308  80.4606700  47.4986328
  60.2037179  79.9817948  48.7608185  59.7637770  80.0148629  48.1124015
  54.8435980  77.7743963  48.7869814  54.9382835  78.5133257  49.2409439
  54.2194824  77.3461438  49.2204378  54.7645010  77.8205283  48.9177961
  41.6984870  77.7319385  53.2742809  42.2758373  77.5955836  53.9135054
  40.9998932  77.2755169  53.5288393  41.6805892  77.6441651  53.4065098
  55.0959001  79.6192703  42.0206766  55.0139164  79.6894890  42.8861753
  55.7338722  80.1822447  41.8290506  55.1778839  79.7131674  42.1196715
  48.4552173  79.3853441  51.4881292  48.1971417  78.5525175  51.4612591
  48.5100655  79.6111054  50.6473792  48.4251950  79.2951212  51.3601429
  53.5353223  71.4881891  51.5885385  52.8309549  70.9991077  51.7469304
  53.5838197  71.5004366  50.7173829  53.4383274  71.4171539  51.4824724
  47.4286885  76.9391203  51.9746187  46.8536476  77.0983371  52.6110148
  47.0522561  76.3026612  51.5114637  47.2889697  76.8689016  52.0000745
  51.0960173  75.4114552  56.8338565  50.7074606  74.9868770  56.1790756
  50.4314872  75.6596702  57.3415592  50.9407101  75.3853273  56.8126433
  60.7383443  75.1689557  49.6086395  60.4820007  74.3569498  49.4184278
  61.5812757  75.1767124  49.3816583  60.8249468  75.0501554  49.5471212
  37.1743704  76.5831278  49.9890627  37.2603955  76.2063146  50.7704157
  37.8019501  76.2091723  49.5110586  37.2800255  76.4716760  50.0336105
  54.9186535  69.1089181  54.3462549  55.2997047  68.4267352  54.7330424
  54.1149819  68.8198783  54.1638214  54.8562997  68.9656230  54.3766605
  52.1999112  79.6413157  45.0315372  53.0139750  79.9328050  44.9198144
  52.1358253  78.9873019  44.4573665  52.3101851  79.5878352  44.9304209
  48.0707020  83.1134674  50.1587684  48.7080967  82.8746422  50.7039478
  48.4962091  83.3171833  49.4240845  48.2283186  83.1085685  50.1304842
  48.7109835  78.3336964  44.4962574  49.0954988  78.1144671  45.2479119
  48.4621455  79.1599910  44.6263650  48.7311908  78.4235110  44.6263650
  48.8778375  71.6143379  64.2125158  48.5631816  72.3842942  63.9494721
  48.5568308  71.0513635  63.6277385  48.7837294  71.6453648  64.0866508
  50.4528492  83.5907097  51.8381470  50.5267500  83.4282269  52.6923320
  51.2697998  83.7797287  51.5941952  50.5844850  83.5943839  51.9279496
  46.4310272  70.0033901  49.8271354  45.5632698  70.0756500  49.8928963
  46.7185477  70.8055980  50.0159329  46.3450020  70.1328048  49.8646121
  55.5543161  70.1511760  58.1582676  56.2996753  69.9621571  57.7446101
  55.1380466  70.6769998  57.5996532  55.6028135  70.2013906  58.0147249
  62.9305432  77.5220989  53.1088181  63.4813353  76.8889058  53.3485273
  62.9149547  78.0536381  53.8003685  63.0090628  77.5069937  53.2467039
  49.5827823  81.3559586  57.6548074  49.0839516  82.0675354  57.7332963
  50.3928047  81.6760253  57.6166237  49.6283929  81.5086435  57.6604643
  45.8455940  80.6182539  51.9010795  45.5569189  79.9920010  52.4356523
  46.7139288  80.5602826  51.9675476  45.9316192  80.5170083  51.9901750
  56.6333838  75.7617322  52.2192777  56.2898604  75.0407658  52.5700027
  56.7326881  75.5531174  51.3771135  56.5975881  75.6241526  52.1464457
  46.0488214  82.2577790  47.8253160  46.8034182  82.6390829  48.0388623
  45.4558826  82.7088934  48.2799857  46.0724927  82.3806617  47.9236039
  48.5094881  74.2140630  62.9510373  47.6994657  74.5198410  62.8400215
  48.9869567  74.9346213  63.0662957  48.4598360  74.3655232  62.9517444
  47.3686440  83.4286351  53.1993276  46.8467194  83.5686643  53.8845140
  47.7560461  82.6697016  53.3895393  47.3490141  83.3371875  53.3294352
  44.3577624  73.4792160  47.2688230  44.0702420  73.1093431  46.5320178
  45.0448093  73.9487015  47.0071935  44.4166522  73.4939129  47.1203306
  48.7952766  80.4590370  48.5974767  48.5995549  81.0665105  48.0035070
  49.0187112  79.7658314  48.1166441  48.7987407  80.4467896  48.4390848
  47.1931296  77.3445108  48.7155635  47.9153948  77.5086266  48.2559441
  46.7139289  78.0654773  48.6094975  47.2295027  77.4743338  48.6321249
  55.1524804  73.6808907  54.0952320  54.3135904  73.7070186  53.8590583
  55.2229171  74.3279643  54.6757667  55.0393197  73.7805033  54.1461437
  44.8438913  79.7503181  57.8209775  45.3560010  80.0287434  57.1718535
  44.5575255  80.4892475  58.1872588  44.8773776  79.9005534  57.7799653
  53.5994082  70.5794284  48.8279936  54.3020435  70.3802032  48.3499894
  53.3338271  69.8070226  49.1348779  53.6640714  70.4357250  48.8025378
  59.0282327  78.8876894  51.3813562  58.9416302  79.0432320  52.2348341
  58.5732807  79.5314969  51.0072967  58.9485584  79.0052649  51.4520669
  41.9305819  74.2573373  48.1173511  42.0321955  75.0599534  48.4454487
  42.7261706  74.0560708  47.8196592  42.0633725  74.3459271  48.1208867
  48.3622638  71.8429569  57.8810817  48.1705835  71.8584704  58.7310240
  49.2121234  72.0393244  57.8577471  48.4598360  71.8743920  58.0034111
  42.7469551  74.3720551  55.8594633  42.6055043  73.5204491  55.9839141
  43.0310114  74.4149211  55.0356839  42.7677397  74.2520301  55.7562257
  52.9008143  76.2087641  50.0039121  52.6542858  76.1283392  50.8375910
  53.2293267  75.4241109  49.8101649  52.9129387  76.0813906  50.0986644
  48.8605171  78.9444360  59.4162104  49.0048546  79.5245568  58.7805214
  49.2080819  79.3220656  60.1211959  48.9332632  79.0865064  59.4261099
  51.0325088  78.1434528  57.1987236  50.2848402  78.3365542  56.7935514
  51.1866613  77.3179747  56.9611357  50.9447516  78.0499639  57.1032642
  51.2726865  72.0385079  58.0882640  51.7299479  72.7709053  58.2155432
  51.3483194  71.6151544  58.8469896  51.3517835  72.0842317  58.2183716
  43.5159856  72.2850898  59.1772083  42.9802046  71.6731257  59.4932851
  43.5777621  72.8599034  59.8305750  43.4455489  72.2797826  59.3207510
  55.7454191  65.2174954  51.9576483  55.8637759  65.6751417  51.2243785
  55.5716367  64.4120215  51.6712700  55.7373362  65.1668726  51.8077416
  49.1509243  74.0287183  54.9324464  48.3605318  73.8478643  55.2541800
  49.5469866  73.2514135  54.9154758  49.0926119  73.8874643  54.9777012
  53.6375134  82.8574957  40.3731177  54.4048119  82.9175082  39.9637029
  53.1906443  82.2855398  39.8887496  53.6848561  82.7811533  40.2408888
  54.5352929  81.6629613  52.6583910  53.8597931  81.4314845  53.1597297
  54.5445305  81.0550796  52.0326015  54.4371434  81.5388538  52.6400062
  51.6647073  76.5047442  59.4147963  51.6006215  77.3657398  59.2868099
  51.8044261  76.1879435  58.6143514  51.6762543  76.5847608  59.2776176
  50.3466167  79.1979581  53.5564166  49.9228416  79.3984080  52.8203184
  50.1711022  78.3508429  53.6688465  50.2577048  79.1028363  53.4637856
  45.6348612  79.6931632  48.9892138  45.7913231  79.6278435  49.8448130
  45.9749205  80.4680185  48.7770818  45.7081847  79.7980831  49.0846732
  52.1727757  79.0689516  47.8585501  52.7143302  78.5659897  48.3224122
  52.4874316  79.0154711  47.0474987  52.2992154  78.9868937  47.8069313
  50.3414207  84.4606868  45.1425529  50.4107027  83.6021406  45.2818530
  51.1202662  84.6778748  44.8144554  50.4667057  84.3659732  45.1142687
  53.3217026  73.9625821  57.9107802  53.5358996  73.3236735  57.3571156
  52.7050925  74.4071644  57.4815664  53.2622355  73.9335964  57.7658233
  42.2082874  76.8766583  49.3052905  42.5881839  77.2951128  48.6413173
  41.6338238  77.4580039  49.6121749  42.1794199  77.0244442  49.2529646
  55.4856114  75.5714886  58.8491109  54.6732796  75.2640776  58.9304282
  55.9446049  75.0913886  59.4133821  55.4336499  75.4551378  58.9445703
  54.8961369  83.4494558  49.2968053  54.5376024  83.6209201  50.0732086
  54.4100080  83.9107763  48.7396052  54.7720066  83.5433529  49.3293322
  52.7131755  67.0725756  52.8995145  51.8425313  67.0464477  52.8528454
  52.9672096  66.9002948  52.0820990  52.6225315  67.0435900  52.7715281
  49.6849734  79.1293723  41.8368288  49.9742259  79.9058606  42.1111862
  49.7721533  78.6182455  42.5382787  49.7403990  79.1685641  41.9810785
  49.7380895  69.0831985  54.3568615  49.2219384  68.3912176  54.4820194
  49.1774824  69.7502762  54.3031214  49.5787409  69.0795242  54.3674681
  51.8073129  69.6224945  56.1861468  51.4204882  69.6473976  56.9674997
  51.3206066  69.0566623  55.7335984  51.6785638  69.5420696  56.2349371
  57.7823108  76.1887600  54.8101170  57.3550716  76.1013948  54.0549269
  57.1449161  76.2965375  55.3956014  57.6252716  76.1920259  54.7846611
  51.4730271  66.5091930  58.4771727  52.1023388  67.0452230  58.1992798
  51.6416133  66.4169289  59.3285293  51.5908065  66.5753292  58.5620256
  51.2744185  71.2963125  60.7498139  52.1017615  71.0248274  60.8056753
  51.2952031  72.0923967  61.1061957  51.3997035  71.3742879  60.8113322
  45.8513675  78.4426988  53.9368400  45.0101682  78.3430862  54.1447294
  46.0603683  79.2122468  54.2882720  45.7578368  78.5419031  54.0195715
  43.3289242  76.0646525  51.7653150  42.9345940  76.1389536  50.9903260
  42.7729359  76.4504471  52.3161512  43.1892055  76.1328299  51.7320810
  54.9654189  69.0427819  51.4457029  55.1703782  68.9750127  52.2914026
  54.6380613  69.8486640  51.3778207  54.9469437  69.1513759  51.5616684
  49.6630340  76.3708387  53.1865997  49.3593478  75.8164375  53.7876405
  48.9609761  76.5500597  52.6994031  49.5146550  76.3153169  53.2035703
  48.7196437  73.6808907  47.7510699  48.9956172  72.9627819  47.3388267
  49.3195107  74.2793827  47.5431805  48.8489702  73.6629277  47.6591460
  58.2187877  69.5959583  50.9259795  57.6062190  70.0829985  51.3113527
  58.3152052  68.9203074  51.4697446  58.1425774  69.5677892  51.0638653
  52.2206958  71.3522424  46.0257294  52.6750704  71.5232984  46.7505139
  52.6947003  70.7390535  45.6255070  52.3575278  71.2873309  46.0731056
  45.7422483  80.8370750  55.3560033  45.1510416  81.4780248  55.3263048
  46.5043507  81.2608367  55.3291332  45.7670744  80.9946588  55.3475180
  46.1383106  71.9972748  56.0228050  46.5984587  72.0711677  56.7603174
  46.1839213  72.7954002  55.6727872  46.2133661  72.1266895  56.0800807
  47.7866456  72.6639443  60.5900077  47.3952021  72.0172790  61.0255855
  47.9552318  73.2550878  61.2094333  47.7537366  72.6553710  60.7462783
  49.5619978  78.0564958  47.1302301  50.3062023  78.4439235  47.3685251
  49.7080674  77.2122384  47.2942789  49.6930563  77.9895431  47.1896271
  51.4799553  69.8515217  52.1634163  50.6335598  70.0238025  52.0375513
  51.4770686  69.0464561  52.4999991  51.3546703  69.7576246  52.1945290
  52.5497854  73.6290432  53.0296221  52.0757808  73.1032194  53.5401532
  52.9215989  73.0819905  52.4611082  52.5347742  73.4706428  53.0211368
  42.9270884  75.6261938  58.3979766  43.7896497  75.5257648  58.3117096
  42.5962667  75.0456648  57.8365339  43.0056080  75.5253565  58.3025172
  58.8134584  78.6892807  54.4403001  58.5732807  77.8499223  54.4445428
  59.2926591  78.7692974  55.1643775  58.8486768  78.5774207  54.5477803
  54.4781353  74.5226986  46.0921974  53.9504372  74.6055730  45.4027683
  54.9377061  75.2644858  46.0886619  54.4683204  74.6447649  45.9896670
  60.8139771  75.4694265  52.3932260  60.5749541  75.4290099  51.5553045
  60.9773672  76.3165417  52.5197981  60.8030075  75.5886350  52.2885742
  46.2872670  74.4504387  55.0590185  45.6625740  74.4622779  54.4516137
  45.9518265  74.9264563  55.7081425  46.1458161  74.5222904  55.0646753
  46.4714418  72.7929506  41.1162870  46.1227223  73.4449231  41.5794419
  45.9910864  72.7786619  40.3886741  46.3484662  72.8872559  41.0773961
  54.0318436  83.0930550  45.2231631  54.7552635  83.5588663  45.0796205
  53.5919027  83.1604159  44.4729228  54.0734128  83.1714387  45.0916413
  53.2004591  79.9528092  56.4732321  52.5861584  79.4086142  56.7680956
  53.7171876  79.4392329  55.9938137  53.1860253  79.7964501  56.4456549
  52.4400888  81.0232362  54.2076619  52.0128496  80.3982081  53.7742055
  52.4325832  80.7407284  55.0335626  52.3760029  80.8885143  54.2656447
  45.5563415  76.0597535  57.2765053  45.7156902  75.3040859  57.6816775
  45.3756309  76.6088475  57.9305791  45.5528774  76.0291349  57.4327759
  53.4983718  68.2258771  57.8315843  53.0024279  68.4222445  57.1407409
  54.2552780  68.6251439  57.6604644  53.5370543  68.3136505  57.7035979
  50.7686598  71.9001117  54.4219153  50.7929085  71.3661229  53.7331933
  51.0198071  71.3918426  55.0844744  50.8096516  71.7462021  54.4183798
  38.2794187  79.1832612  53.8562297  38.1737637  79.1379456  52.9914381
  37.5294407  79.5286392  54.1376582  38.1529790  79.2273520  53.7699627
  47.0487920  70.6271935  53.8024897  47.0886291  71.1281142  54.5159605
  46.2237585  70.7182329  53.5330820  46.9327446  70.7153751  53.8675436
  48.4702283  77.1432445  56.0998796  47.6394213  77.3106263  55.8934045
  48.4153800  76.7668396  56.8847682  48.3391698  77.1122176  56.1847325
  46.2786066  70.6341338  61.7355207  46.9038770  70.0903470  62.0084639
  45.8236546  70.1536255  61.1662998  46.3034327  70.4830819  61.6916801
  46.8438327  75.4188036  46.6288914  46.9841288  75.9160501  47.3317556
  47.3420860  74.7174331  46.7703128  46.9379408  75.3890015  46.7540493
  46.8738549  76.2855147  43.9581491  47.5083629  76.8815572  43.8930953
  46.9564160  75.9858605  44.7727361  46.9795100  76.3296056  44.0684578
  48.4517532  72.2169123  43.9326933  48.7733373  71.7372205  43.2786195
  48.7144476  73.0268769  43.7417745  48.5383558  72.2659021  43.8082425
  53.8476687  71.6041317  56.2950412  54.2731759  71.1513843  55.6833938
  53.2333680  71.0501387  56.5715200  53.8205333  71.4555293  56.2455437
  43.3791537  78.4822988  47.2271037  43.8883767  79.0787496  47.6082343
  43.8525810  78.2148962  46.5447457  43.5234913  78.5308804  47.1825560
  52.2870910  68.0756417  49.7040989  51.6439228  67.9254063  50.2726128
  51.9470317  67.8298762  48.9390094  52.1415987  68.0168539  49.6744004
  56.8770257  76.0315843  49.1270998  56.2061446  76.5745546  48.9984063
  57.5710007  76.5010699  48.8852692  56.8799124  76.1814115  49.0726525
  57.0398384  72.4871727  52.0361371  57.3925994  72.0601450  52.7107170
  56.1813186  72.4022571  52.1662447  56.9647829  72.4116468  52.1556381
  45.7382069  75.1179247  50.0944217  45.0194058  75.5343379  50.3617081
  46.1094431  75.6833485  49.5435856  45.6874001  75.2628528  50.0527024
  55.0381650  75.7507096  55.9846213  55.0179577  75.5690391  56.8380992
  55.0860851  76.6219114  55.9605797  55.0416291  75.8523634  56.1069508
  51.5128643  74.1577247  45.4317597  50.9193483  74.4794243  44.8802164
  51.5503921  73.3118342  45.2238703  51.4303033  74.0801575  45.3200368
  58.4722444  67.6090139  52.9645683  57.9653309  66.9019278  52.8966861
  59.2689878  67.2783328  53.0946760  58.5149683  67.4563290  52.9744678
  54.3886460  74.1156751  48.8619347  54.1600153  74.1389453  48.0197705
  54.6484536  73.2914218  48.9814358  54.3932648  73.9972831  48.7544545
  48.6705688  75.9691224  58.4644447  48.1584592  75.3612407  58.8229479
  48.4985185  76.6847817  58.9318423  48.5695325  75.9854523  58.5860671
  43.5171403  74.4128799  61.1146809  43.3473993  75.0730174  60.5695016
  43.0737353  74.6235361  61.8359298  43.4270737  74.5414782  61.1408439
  47.4431223  72.6533297  50.1573543  47.9188589  73.0150377  49.5223724
  46.9419822  73.3089765  50.4373686  47.4396582  72.8027486  50.1050284
  52.5474759  73.8915469  60.9046703  53.1046189  73.6629278  60.2725168
  52.2235824  74.6521134  60.6281915  52.5821169  73.9699305  60.7703200
  40.4173468  77.3175665  56.3735299  39.8700187  76.6476311  56.4916167
  41.2065846  76.9505513  56.4378766  40.4525651  77.1640651  56.4003999
  49.4857876  74.7974497  43.5246927  49.8656841  74.8154126  42.7398041
  48.7450472  75.2428486  43.4037774  49.4326713  74.8656272  43.3910495
  57.1143166  73.1056688  49.1122505  57.1137393  72.9505345  49.9706782
  56.9099346  73.9519675  49.0563891  57.0842944  73.2077309  49.2310445
  39.1760437  76.5296473  53.5281322  38.9982198  76.0773082  54.2536238
  38.8879459  77.3322634  53.7119800  39.1073390  76.5819031  53.6624825
  54.8384018  77.7854190  52.7658712  55.3337684  77.0677185  52.7262733
  54.0283794  77.4824988  52.6513199  54.7927912  77.6351836  52.7432438
  50.2842630  81.6352003  44.9155717  49.4753952  81.3118677  44.8689026
  50.7917539  80.9285225  44.8483965  50.2392297  81.4833320  44.8986011
  40.9132907  79.0624197  50.6403081  40.0478426  79.0509887  50.5285852
  41.0131723  78.8754419  51.4874220  40.8007074  79.0330258  50.7492025
  56.9035837  80.5357878  55.4535841  57.3290909  80.0132299  54.9006266
  56.5392757  81.1338715  54.9324464  56.9122440  80.5468105  55.2944851
  53.4914437  84.2492142  51.7836999  53.9625615  84.9632404  51.9526984
  53.8274615  83.6490892  52.3196868  53.6109552  84.2663606  51.8869374
  50.4083932  69.0219612  58.7395093  50.5411837  68.2250606  59.0676069
  50.7929084  69.5486015  59.3193369  50.4840260  68.9819529  58.8738596
  53.4816287  65.9449939  55.3376187  52.6762250  65.8347668  55.6544025
  53.3523022  66.0462394  54.4806052  53.3436420  65.9433609  55.2584227
  56.9382247  72.1095431  55.9315883  56.3545236  72.6104637  55.5193451
  57.2586541  71.6024987  55.2980207  56.8995423  72.1087266  55.7774391
  49.4777046  71.0236025  46.2074558  50.2992741  71.1934338  45.9656253
  49.0146697  71.1783286  45.4840856  49.5308209  71.0717758  46.0646203
  48.0672378  69.0178788  56.9872987  48.6116791  68.6769914  57.5777329
  48.1209314  69.8764249  57.1294272  48.1561498  69.0934047  57.0954860
  25.9680849   7.5662900  34.9756955  25.9374854   8.4207537  35.1475225
  26.5662198   7.2658193  35.5343099  26.0518007   7.6479396  35.0831758
  19.1680534   6.6538551  39.7309886  18.3118430   6.8147049  39.7819003
  19.2148188   5.7830615  39.7514947  19.0479645   6.5489353  39.7415952
  13.5521674  16.1901269  35.4947118  12.8004573  15.8116807  35.2663163
  14.0007685  16.2219702  34.7465928  13.5071341  16.1386876  35.3504620
  22.4774251  12.9225077  49.3370342  23.1841018  12.4277107  49.4657276
  22.6662186  13.3634158  48.6073000  22.6102156  12.9143427  49.2479388
  19.0046634  16.6126638  30.9232665  18.6698002  17.2903560  30.4876887
  19.5173504  16.2231950  30.3349536  19.0312215  16.6551217  30.7719456
  18.5450925  18.5640907  36.8643776  18.9290304  19.1327806  36.3248551
  18.4810066  17.8390417  36.3849592  18.5924352  18.5416370  36.7137639
  22.0132355   8.7130595  42.3741538  22.5588315   9.3915681  42.4335507
  21.9549231   8.5718056  41.5143119  22.0848269   8.7922597  42.2553598
  15.1306430  16.2019661  37.7609890  15.2316793  15.3920015  38.0707018
  14.5348175  16.1076607  37.1309569  15.0578969  16.0684689  37.7136128
  23.7897424  10.1415202  33.2475265  23.6736950  10.8922888  33.6767403
  24.5853310   9.8839155  33.4971352  23.8902013  10.2150049  33.3479357
  14.9707170  21.1197250  39.1624746  15.6144625  21.5610414  39.5520904
  15.2963425  20.3150676  39.0755005  15.1138998  21.0662445  39.2070223
   8.3271474  12.2239948  37.3862224   8.0921659  11.3907600  37.2794492
   8.4657115  12.5044613  36.5723425   8.3127137  12.1423451  37.2504579
  15.6727749  14.1309225  34.5344608  15.9943590  14.6714432  33.9305916
  16.3199846  13.5605996  34.6666898  15.8153804  14.1268400  34.4651643
  17.7229457   6.1325220  34.6178994  18.4209622   6.3113347  35.1100458
  18.0381790   5.6095559  33.9949384  17.8724794   6.0818992  34.5981005
  10.3530695   7.9377960  42.5290100  10.2289392   8.5240405  43.1639919
  11.0048979   7.4438156  42.8302375  10.4304344   7.9516764  42.6676030
  17.9117393  12.5195665  34.6058786  18.3511028  11.9112765  35.0513559
  17.7622056  12.1403038  33.8344251  17.9538858  12.3734136  34.5577953
  15.3789036  11.1139677  41.8077611  16.0238038  10.6212120  41.4888560
  15.6190813  11.2564463  42.6343690  15.5099621  11.0617119  41.8827145
  17.9175127  13.9594583  41.4584504  18.1998370  13.1645988  41.2371260
  18.6461287  14.4375170  41.4789565  18.0664691  13.9129180  41.4287519
  21.5126729  10.8722846  31.5589555  21.4278024  11.7283813  31.7039124
  22.0011112  10.5967170  32.2271714  21.5715627  10.9580168  31.6791637
  23.1032729  -2.5096861  36.9449880  22.7886170  -1.8193382  37.3770302
  22.5859670  -2.5652078  36.2435380  22.9797199  -2.4161972  36.9046829
  22.4445162   7.4907640  33.0587290  21.9156634   7.7067274  33.7184597
  22.9670182   8.1843779  32.9788260  22.4433615   7.6250777  33.1442890
  14.3344770  11.3870857  31.8594758  13.7501985  11.8920889  32.2660622
  13.9314865  11.1613244  31.1191350  14.1884074  11.4279105  31.8099784
   9.8888799  17.1025618  38.6618430   9.4056377  17.8276108  38.6378013
  10.7012117  17.4001748  38.7728588   9.9379547  17.2527972  38.6745709
  15.9602953  15.8957799  41.2668244  15.4429895  15.5365214  40.6629552
  16.6577344  15.3719973  41.2774310  15.9868534  15.7655487  41.1798503
  19.6166545  16.3452613  47.2284417  19.7049891  16.1578753  48.0762628
  20.0456257  15.6990043  46.8289264  19.6928647  16.2215621  47.2956169
  17.1837005  15.6283773  46.2102080  16.6207840  15.2156383  46.7341741
  17.9458028  15.5536679  46.6295223  17.2131453  15.5561174  46.3495080
  18.7921985   7.6336509  30.3363679  19.0317988   7.8414493  29.5239022
  19.1137826   6.8294018  30.4452623  18.8759143   7.5450610  30.2324232
  12.7432996  17.6181794  38.8138710  13.4453575  17.1033783  38.8711466
  12.6630479  17.9455946  39.6185585  12.8356757  17.5896020  38.9411502
  27.3947174   5.7124345  42.2270756  26.5575595   5.7826533  42.4618351
  27.3635405   5.7148840  41.3545058  27.2665456   5.7234573  42.1330304
  13.7911903   7.8557381  47.9419125  13.9632406   7.7463276  48.7904406
  14.3281260   8.5011787  47.7050317  13.8956907   7.9349383  48.0324221
  12.0683772  13.8088146  38.3224318  12.9072671  14.0411079  38.3698079
  12.0995541  12.9392458  38.2531353  12.1965489  13.7145093  38.3188962
  12.6936475  14.2289021  42.6237623  13.2334700  14.0860152  43.2940996
  12.0106421  14.6285772  42.9921649  12.6728628  14.2668692  42.7772045
  22.1177359   9.9080022  37.8182648  22.8734875  10.3411536  37.8571556
  22.2239684   9.2584792  38.3917284  22.2447530   9.8757506  37.9080673
  19.7286604  15.7761632  49.8928201  20.5127021  15.8892480  50.2583943
  19.5283199  14.9502769  50.0886887  19.8152630  15.6708352  49.9762587
   8.0973620  10.4489312  42.7772045   7.8312035   9.6328429  42.9363035
   8.1112184  10.4942468  41.9067560   8.0598342  10.3346217  42.6725527
  25.0755013   0.7767127  40.8114479  25.7180922   0.8465232  41.3976394
  25.3278034   0.1096350  40.3094020  25.2077146   0.6893476  40.8241758
  12.0031367   5.2474397  29.3923803  11.2889544   4.9612576  29.8046235
  12.4875335   5.5871022  30.0330190  11.9690730   5.2556046  29.5479438
  19.8856998  17.6871734  43.5394656  19.0872243  17.4471234  43.7968525
  20.3343009  17.7386127  44.2861704  19.8331609  17.6594125  43.6879581
  28.2901877  10.4534219  37.4604688  28.9518311   9.8924888  37.3600596
  27.6493289   9.9586250  37.7857379  28.2930744  10.2970628  37.4937028
  19.1778685  13.7504351  29.7685611  19.5929833  13.4189374  29.0770107
  18.3470614  13.5173253  29.6405748  19.1166693  13.6675607  29.6476458
   8.5067033  11.2348092  40.0583789   8.3242607  11.2094978  39.2056081
   9.2416702  11.7047029  40.0972698   8.5881097  11.3009454  39.9381707
  24.5766708  11.4699602  37.2016677  24.8122297  11.6144800  36.3743527
  24.7256271  12.2342010  37.5948190  24.6332511  11.6038656  37.1380280
  11.5712785   7.9533094  46.5665898  12.2952757   7.9386125  47.0530792
  11.6728922   8.6628450  46.0687866  11.6930994   8.0557798  46.5644684
  26.4057164  10.3101267  35.0386280  26.7365381  10.8428908  34.4326375
  26.9790252  10.3640155  35.6948231  26.5390843  10.3970836  35.0464062
  18.9457734  11.4332179  51.4314845  18.1530715  11.7475691  51.6167464
  19.0606662  11.6483647  50.5935629  18.8453145  11.5116016  51.3353179
  21.6189053   8.1566170  35.7209861  21.7135908   8.8955464  36.1749486
  20.9947897   7.7283646  36.1544425  21.5398083   8.2027491  35.8518008
  19.8741527  11.3352383  46.3700141  20.4480389  10.6979627  46.5248705
  19.7956331  11.3356465  45.5009799  19.9474762  11.2417494  46.2646552
   8.4737944   8.1141592  40.2082856   9.0511446   7.9778043  40.8475101
   7.7752005   7.6577376  40.4628440   8.4558965   8.0263858  40.3405145
  21.8712075  10.0014910  28.9546813  21.7892237  10.0717097  29.8201800
  22.5091795  10.5644654  28.7630553  21.9531912  10.0953881  29.0536762
  15.2305246   9.7675648  38.4221339  14.9724490   8.9347383  38.3952638
  15.2853729   9.9933261  37.5813839  15.2005024   9.6773419  38.2941476
  20.3106296   1.8704099  38.5225431  19.6062623   1.3813284  38.6809351
  20.3591270   1.8826573  37.6513876  20.2136348   1.7993747  38.4164771
  14.2039958   7.3213410  38.9086234  13.6289549   7.4805579  39.5450195
  13.8275634   6.6848820  38.4454684  14.0642770   7.2511223  38.9340792
  17.8713247   5.7936760  43.7678612  17.4827679   5.3690977  43.1130803
  17.2067945   6.0418909  44.2755639  17.7160174   5.7675481  43.7466480
  27.5136516   5.5511764  36.5426442  27.2573081   4.7391706  36.3524325
  28.3565830   5.5589332  36.3156629  27.6002541   5.4323762  36.4811259
  21.6939608  -0.5088612  41.2802596  22.0750120  -1.1910440  41.6670470
  20.8902892  -0.7979009  41.0978261  21.6316070  -0.6521563  41.3106652
  18.9752185  10.0235364  31.9655419  19.7892824  10.3150257  31.8538190
  18.9111326   9.3695227  31.3913712  19.0854924   9.9700559  31.8644256
  25.1961675  12.7061360  46.3784995  24.9600312  11.8749425  46.2597055
  25.8404904  12.6546968  46.9639839  25.2556346  12.5759048  46.4470888
  14.8460093  13.4956882  37.0927731  15.4834040  13.2568629  37.6379524
  15.2715165  13.6994041  36.3580892  15.0036259  13.4907892  37.0644888
   9.5372736  15.7345218  40.9762035   9.5776881  16.0060069  40.1481814
  10.0967260  16.2587126  41.3919823   9.6256081  15.8520973  40.9153923
  15.4862908   8.7159172  31.4302620  15.8708061   8.4966878  32.1819166
  15.2374529   9.5422117  31.5603697  15.5064981   8.8057318  31.5603697
  26.2198096  12.4905809  42.4413289  25.9143913  13.2233866  42.8026605
  25.5004311  12.0843739  42.1606075  26.0685438  12.5387542  42.4526426
  17.2281565  13.9729304  38.7721517  17.3020573  13.8104476  39.6263367
  18.0451071  14.1619494  38.5281999  17.3597924  13.9766047  38.8619543
  31.9199888   9.1298810  41.7681633  31.8524388   9.1494769  40.8984220
  31.9055550   9.9729137  41.9937304  31.9078644   9.2572545  41.6734110
  10.9887322  14.3187167  35.8015961  10.1625439  14.5648904  35.6750240
  11.0499313  14.2399248  36.6678019  10.8761489  14.3432116  35.9104905
  22.3296234   0.5333968  45.0922723  23.0749826   0.3443778  44.6786148
  21.9133539   1.0592206  44.5336579  22.3781209   0.5836113  44.9487296
  15.7686151  16.9364047  33.5034991  16.0584449  16.5453029  32.7794217
  16.4989632  17.1180752  33.9440266  15.9193035  16.9057861  33.4617798
  29.7058505   7.9043196  40.0428228  30.2566427   7.2711265  40.2825320
  29.6902621   8.4358589  40.7343732  29.7843702   7.8892144  40.1807086
  16.3580896  11.7381793  44.5888121  15.8592590  12.4497561  44.6673010
  17.1681120  12.0582460  44.5506284  16.4037003  11.8908642  44.5944690
  13.7092066  18.9131430  36.5695140  13.4892362  18.6228785  37.3621807
  13.4886588  18.2546385  36.0413053  13.6439661  18.7731138  36.6084049
  12.6209014  11.0004746  38.8350842  12.3322262  10.3742218  39.3696569
  13.4892362  10.9425034  38.9015523  12.7069266  10.8992291  38.9241797
  23.4086911   6.1439530  39.1532824  23.0651677   5.4229865  39.5040074
  23.5079954   5.9353381  38.3111182  23.3728954   6.0063733  39.0804504
  15.8760022  20.2860820  35.3525833  16.5284080  19.7537262  35.5816859
  15.1785631  19.9329472  35.7393707  15.8690740  20.1550343  35.4438001
  12.8241287  12.6399997  34.7593207  13.5787255  13.0213036  34.9728670
  12.2311900  13.0911141  35.2139904  12.8478001  12.7628825  34.8576086
  23.8699940  12.6065234  34.6956812  24.4357973  13.2658444  34.6115355
  23.2227844  12.9514932  35.1673214  23.8578697  12.7547175  34.7529569
  15.2847954   4.5962838  49.8850419  14.4747730   4.9020617  49.7740262
  15.7622641   5.3168420  50.0003004  15.2351433   4.7477439  49.8857491
  14.1439514  13.8108559  40.1333323  13.6220267  13.9508850  40.8185187
  14.5313534  13.0519223  40.3235440  14.1243214  13.7194083  40.2634399
  20.3406519  15.5504018  34.1193891  20.0993194  14.8171879  33.7120956
  20.5207851  16.0990875  33.4660225  20.3314143  15.5226409  33.9624114
  15.5705839  10.8412578  35.5314814  15.3748622  11.4487312  34.9375117
  15.7940185  10.1480522  35.0506488  15.5740480  10.8290103  35.3730894
  13.9684369   7.7267316  35.6495682  14.6907021   7.8908474  35.1899488
  13.4892362   8.4476981  35.5435022  14.0048100   7.8565545  35.5661296
  21.9277877   4.0631114  41.0292367  21.0888977   4.0892393  40.7930630
  21.9982244   4.7101850  41.6097714  21.8146270   4.1627240  41.0801484
  11.6191986  10.1325388  44.7549822  12.1313083  10.4109641  44.1058582
  11.3328329  10.8714682  45.1212635  11.6526849  10.2827742  44.7139700
  20.3747155   0.9616492  35.7619983  21.0773508   0.7624240  35.2839941
  20.1091344   0.1892434  36.0688826  20.4393787   0.8179458  35.7365424
  25.8035401   9.2699101  38.3153609  25.7169375   9.4254527  39.1688387
  25.3485881   9.9137177  37.9413014  25.7238657   9.3874856  38.3860715
  15.1375711   2.2251777  44.8150863  14.9458908   2.2406911  45.6650287
  15.9874307   2.4215451  44.7917518  15.2351433   2.2566128  44.9374158
  19.6761217   6.5909848  36.9379168  19.4295931   6.5105599  37.7715957
  20.0046340   5.8063316  36.7441696  19.6882460   6.4636114  37.0326691
  23.5709265  13.2993208  40.7265949  23.4323625  13.9974253  41.2314692
  22.7909263  13.1441864  40.3702131  23.4352492  13.3793374  40.7492224
  21.9087351   9.5989583  46.9788331  21.9035389   8.7269400  46.9830758
  22.6148344   9.7977752  46.5057787  22.0132355   9.4993457  46.9095366
  15.6358244   9.3266567  46.3502151  15.7801620   9.9067775  45.7145261
  15.9833893   9.7042864  47.0552006  15.7085705   9.4687271  46.3601146
  17.8078161   8.5256735  44.1327283  17.0601475   8.7187750  43.7275561
  17.9619687   7.7001955  43.8951404  17.7200589   8.4321847  44.0372689
  14.7085999  17.5169339  43.2163178  14.8575563  16.9572255  42.5636582
  15.4886001  17.5961340  43.5995697  14.8460093  17.4454904  43.1760127
  17.2339300  17.6883982  44.4947669  17.1582971  17.0192792  45.0498457
  17.1629159  18.3901770  45.0088335  17.2119906  17.6928889  44.6524517
  18.0479938   2.4207286  45.0222687  18.5052552   3.1531260  45.1495479
  18.1236267   1.9973751  45.7809942  18.1270908   2.4664524  45.1523763
  17.8909547  16.2084981  35.3271275  18.6559438  15.9394624  35.0053939
  17.7887636  15.7234991  36.0441338  17.9891042  16.0974545  35.3851102
  15.9262316   4.4109390  41.8664511  15.1358391   4.2300850  42.1881846
  16.3222939   3.6336343  41.8494805  15.8679192   4.2696851  41.9117059
  20.4128207  13.2397164  27.3071224  21.1801192  13.2997289  26.8977076
  19.9659516  12.6677606  26.8227543  20.4601634  13.1633740  27.1748934
  21.3106003  12.0451820  39.5923956  20.6351004  11.8137052  40.0937344
  21.3198379  11.4373003  38.9666062  21.2124507  11.9210745  39.5740109
  18.4400147   6.8869649  46.3488009  18.3759288   7.7479606  46.2208146
  18.5797334   6.5701642  45.5483561  18.4515617   6.9669816  46.2116222
  23.3122737  14.9016952  31.8234134  23.3942575  15.7083939  31.4995585
  23.7972479  14.9212912  32.5474908  23.3959895  15.0237615  31.8821033
  17.1219240   9.5801788  40.4904212  16.6981490   9.7806287  39.7543231
  16.9464096   8.7330636  40.6028512  17.0330121   9.4850570  40.3977902
  16.6230934  21.0952301  42.9525670  17.1126864  20.3963091  42.7701334
  16.0515166  20.7976171  43.5401727  16.6115464  20.9478525  43.0126710
  12.4101685  10.0753840  35.9232185  12.5666305  10.0100643  36.7788177
  12.7502279  10.8502392  35.7110865  12.4834920  10.1803038  36.0186779
  18.9480830   9.4511723  34.7925548  19.4896375   8.9482105  35.2564169
  19.2627389   9.3976918  33.9815033  19.0745227   9.3691144  34.7409360
  22.8197937  13.6614371  51.9052460  23.6332803  13.3899520  52.0657593
  22.6592904  13.3621911  51.1012656  22.9167886  13.5769297  51.8097866
  17.1167280  14.8429075  32.0765576  17.1860100  13.9843613  32.2158577
  17.8955735  15.0600956  31.7484601  17.2420130  14.7481939  32.0482733
  20.0970099   4.3448028  44.8447849  20.3112069   3.7058942  44.2911203
  19.4803999   4.7893852  44.4155710  20.0375429   4.3158172  44.6998280
  21.5074767  17.2666776  36.2902069  21.1154559  16.9633491  35.5724936
  21.6627840  18.1035866  36.1007023  21.4728357  17.3450613  36.1558567
   8.9835947   7.2588790  36.2392952   9.3634912   7.6773335  35.5753219
   8.4091312   7.8402246  36.5461795   8.9547272   7.4066649  36.1869693
  22.2609187   5.9537093  45.7831156  21.4485869   5.6462984  45.8644328
  22.7199122   5.4736093  46.3473868  22.2089572   5.8373586  45.8785750
  21.6714442  13.8316765  36.2308100  21.3129097  14.0031408  37.0072132
  21.1853153  14.2929971  35.6736099  21.5473139  13.9255736  36.2633369
  16.4602807   9.5115931  28.7708334  16.7495332  10.2880813  29.0451909
  16.5474606   9.0004662  29.4722834  16.5157064   9.5507849  28.9150832
  19.3562695   7.3597165  50.5659858  19.8262326   7.9839281  50.9527732
  19.4024575   6.6914140  51.1253073  19.4330571   7.3531845  50.7059929
  22.8319181  14.7220661  47.1775301  23.4698902  14.2280857  46.8437757
  22.1893273  14.6498062  46.5927528  22.8313408  14.6379670  47.0417656
  24.5576181   6.5709807  41.7441217  24.1303790   6.4836156  40.9889316
  23.9202234   6.6787583  42.3296061  24.4005789   6.5742467  41.7186658
  18.0497259   1.6785332  47.6838186  18.8770688   1.4070481  47.7396800
  18.0705105   2.4746174  48.0402004  18.1750109   1.7565087  47.7453369
  22.8873438  15.4140469  43.8180658  23.6765816  15.0629534  43.9382739
  23.0617036  16.2276858  43.5557291  23.0293720  15.4826326  43.7968526
  12.6266748   8.8249195  40.8708446  11.7854755   8.7253069  41.0787340
  12.8356756   9.5944675  41.2222767  12.5331441   8.9241238  40.9535761
  10.1042315   6.4468732  38.6993197   9.7099013   6.5211744  37.9243307
   9.5482432   6.8326678  39.2501559   9.9645128   6.5150507  38.6660857
  21.7407262  -0.5749974  38.3797076  21.9456856  -0.6427666  39.2254073
  21.4133686   0.2308847  38.3118253  21.7222510  -0.4664034  38.4956731
  16.4383413   6.7530594  40.1206044  16.1346551   6.1986583  40.7216452
  15.7362834   6.9322804  39.6334078  16.2899623   6.6975377  40.1375750
  15.4949510   4.0631114  34.6850746  15.7709245   3.3450027  34.2728313
  16.0948180   4.6616034  34.4771852  15.6242775   4.0451485  34.5931507
  14.5001764  13.9680315  44.8278142  14.3922119  13.9782377  45.6940200
  14.7097546  14.7935095  44.6383096  14.5151875  14.0921390  44.9282233
  24.9940950  -0.0218210  37.8599842  24.3815264   0.4652192  38.2453573
  25.0905125  -0.6974719  38.4037493  24.9178848  -0.0499901  37.9978700
  18.9960031   1.7344631  32.9597341  19.4503777   1.9055192  33.6845185
  19.4700077   1.1212742  32.5595117  19.1328351   1.6695517  33.0071102
  12.5175556  11.2192957  42.2900079  11.9263490  11.8602456  42.2603094
  13.2796580  11.6430575  42.2631379  12.5423817  11.3768796  42.2815227
  14.5619529   3.0461650  47.5240124  14.1705094   2.3994997  47.9595902
  14.7305392   3.6373085  48.1434379  14.5290439   3.0375918  47.6802830
  22.2765073  16.6702269  39.7232104  22.0784761  17.1593083  39.0288315
  21.6552784  16.8743510  40.3016237  22.1552637  16.7718807  39.7055327
  16.3373051   8.4387166  34.0642348  17.0815096   8.8261442  34.3025298
  16.4833747   7.5944591  34.2282836  16.4683636   8.3717639  34.1236318
  19.3250927   4.0112639  39.9636267  18.8510881   3.4854401  40.4741578
  19.6969063   3.4642112  39.3951129  19.3100816   3.8528636  39.9551415
  25.5887657   9.0715015  41.3743048  25.3485880   8.2321430  41.3785474
  26.0679664   9.1515181  42.0983821  25.6239841   8.9596414  41.4817850
  21.2534426   4.9049194  33.0262021  20.7257445   4.9877938  32.3367730
  21.7130135   5.6467065  33.0226666  21.2436277   5.0269856  32.9236716
  27.5892844   5.8516472  39.3272307  27.3502614   5.8112306  38.4893092
  27.7526746   6.6987624  39.4538028  27.5783148   5.9708557  39.2225789
  24.1938874  10.2366421  45.2577352  24.9173073   9.7838948  45.0788372
  23.9288837  10.5171087  44.4749680  24.2620148  10.2117390  45.1156068
  13.0625743   4.8326595  41.9930231  12.4378813   4.8444987  41.3856184
  12.7271338   5.3086770  42.6421472  12.9211235   4.9045112  41.9986800
   9.7751418  12.8927055  43.4333996   9.2451343  12.2019494  43.4828970
  10.0476512  12.8837240  42.6046704   9.7376141  12.7894187  43.3181412
  20.8071509  13.4752757  32.1571678  21.5305708  13.9410870  32.0136252
  20.3672100  13.5426367  31.4069275  20.8487201  13.5536594  32.0256460
  19.9757664  10.3350300  43.4072367  19.3614657   9.7908350  43.7021003
  20.4924949   9.8214536  42.9278183  19.9613326  10.1786709  43.3796596
  19.2153961  11.4054570  41.1416666  18.7881569  10.7804288  40.7082101
  19.2078906  11.1229491  41.9675673  19.1513102  11.2707350  41.1996493
  12.3316488   6.4419743  44.2105100  12.4909975   5.6863067  44.6156822
  12.1509382   6.9910682  44.8645838  12.3281847   6.4113556  44.3667806
  20.2736791  -1.3919022  44.7655889  19.7777352  -1.1955348  44.0747456
  21.0305853  -0.9926354  44.5944691  20.3123616  -1.3041288  44.6376026
  17.5439671   2.2823324  41.3559200  17.5682158   1.7483436  40.6671980
  17.7951144   1.7740633  42.0184791  17.5849590   2.1284228  41.3523845
   5.0547261   9.5654819  40.7902344   4.9490710   9.5201663  39.9254428
   4.3047481   9.9108600  41.0716629   4.9282864   9.6095727  40.7039674
  16.0070606  10.5754882  48.8385239  15.1566236  10.7126597  48.9742884
  16.1698734   9.8418661  49.2832941  15.9054469  10.4868984  48.9240838
  15.2455356   7.5254652  43.0338843  14.4147286   7.6928470  42.8274091
  15.1906874   7.1490603  43.8187729  15.1144771   7.4944383  43.1187371
  13.6191400   5.8010244  33.5628961  13.7594361   6.2982708  34.2657602
  14.1173933   5.0996538  33.7043175  13.7132481   5.7712222  33.6880540
  13.6491623   6.6677355  30.8921538  14.2836702   7.2637780  30.8271000
  13.7317233   6.3680812  31.7067408  13.7548174   6.7118263  31.0024624
  26.6274188   9.1992832  43.7607902  27.2192029   9.8390083  43.7926100
  27.0633183   8.5015869  44.0499969  26.7792620   9.1911182  43.8088735
  15.2270606   2.5991330  30.8666980  15.5486447   2.1194413  30.2126242
  15.4897549   3.4090976  30.6757791  15.3136631   2.6481228  30.7422472
  18.4567578  13.6210204  44.3865796  17.9492669  14.1746051  44.8306426
  18.1594224  13.6818494  43.5684570  18.3372463  13.7116516  44.3314253
  20.6229761   1.9863524  43.2290459  21.0484832   1.5336051  42.6173985
  20.0086754   1.4323595  43.5055246  20.5958406   1.8377500  43.1795484
  10.1544611   8.8645195  34.1611084  10.6636840   9.4609703  34.5422389
  10.6278883   8.5971169  33.4787503  10.2987986   8.9131011  34.1165607
  21.0675359  17.5373462  32.3169739  20.3504668  17.3634324  31.8516977
  21.7182096  17.3026034  31.7845225  21.0577209  17.4769255  32.1698957
  23.6523330   6.4138051  36.0611044  22.9814520   6.9567753  35.9324110
  24.3463080   6.8832906  35.8192739  23.6552197   6.5636322  36.0066572
  17.7010064  18.5534763  41.2922803  17.4775718  17.7953592  41.6606829
  17.2119907  18.5832784  40.5703242  17.5953513  18.4456987  41.2399544
  23.8151457   2.8693934  38.9701418  24.1679067   2.4423657  39.6447216
  22.9566259   2.7844778  39.1002494  23.7400902   2.7938675  39.0896428
  12.5135142   5.5001454  37.0284264  11.7947131   5.9165587  37.2957128
  12.8847505   6.0655693  36.4775902  12.4627074   5.6450735  36.9867071
  21.8134723   6.1329303  42.9186260  21.7932650   5.9512598  43.7721039
  21.8613924   7.0041321  42.8945844  21.8169364   6.2345841  43.0409555
  19.7581053  12.7216495  48.8434736  19.7176908  12.0766172  48.2579892
  20.5704371  12.6653112  49.1560149  19.8724206  12.6175462  48.8031686
  16.3488521  18.7735221  38.7459887  15.9348919  18.1109351  38.3563729
  17.0335895  18.9213080  38.2255582  16.3886892  18.6975879  38.6116385
  19.7153815  17.9325306  39.4983504  19.3170098  18.0427576  38.7304324
  19.1005034  18.1407372  40.0810064  19.5652704  17.9798874  39.4714803
  18.2881717   4.5399454  32.3657644  17.6946556   4.8616450  31.8142211
  18.3256994   3.6940549  32.1578750  18.2056106   4.4623782  32.2540415
  25.2475517  -2.0087654  39.8985730  24.7406382  -2.7158514  39.8306908
  26.0442951  -2.3394465  40.0286807  25.2902757  -2.1614502  39.9084725
  21.1639533   4.4978958  35.7959394  20.9353226   4.5211660  34.9537752
  21.4237609   3.6736425  35.9154404  21.1685721   4.3795038  35.6884592
  15.4458762   6.3513431  45.3984494  14.9337665   5.7434614  45.7569525
  15.2738258   7.0670024  45.8658470  15.3448399   6.3676731  45.5200718
  14.2184296   3.0355505  37.0913590  14.6941662   3.3972585  36.4563771
  13.7172895   3.6911972  37.3713732  14.2149655   3.1849693  37.0390331
  19.3227832   4.2737676  47.8386750  19.8799262   4.0451486  47.2065215
  18.9988897   5.0343342  47.5621962  19.3574242   4.3521513  47.7043247
  17.0410949   7.3605329  48.8038757  17.7922276   7.6757006  49.1178311
  17.2333526   7.1584500  47.9772679  17.1802363   7.3772711  48.7282153
  16.2610949   5.1796705  30.4586974  16.6409914   5.1976334  29.6738088
  15.5203545   5.6250693  30.3377821  16.2079787   5.2478479  30.3250542
  23.8896239   3.4878896  36.0462552  23.8890466   3.3327552  36.9046829
  23.6852419   4.3341883  35.9903938  23.8596017   3.5899516  36.1650492
  21.6137091   8.1676398  39.6998759  22.1090757   7.4499393  39.6602779
  20.8036867   7.8647195  39.5853246  21.5680985   8.0174044  39.6772485
  17.0595703  12.0174211  31.8495764  16.2507026  11.6940884  31.8029073
  17.5670612  11.3107433  31.7824012  17.0145370  11.8655527  31.8326058
   7.6885980   9.4446404  37.5743128   6.8231500   9.4332094  37.4625899
   7.7884796   9.2576627  38.4214267   7.5760147   9.4152465  37.6832072
  23.6788910  10.9180085  42.3875888  24.1043982  10.3954507  41.8346313
  23.3145830  11.5160922  41.8664511  23.6875513  10.9290312  42.2284898
  13.3142990  19.2144303  41.1473233  13.6289549  20.0280691  41.1551015
  13.7236403  18.8294521  41.8155393  13.4211088  19.2773005  41.2477325
  20.2667510  14.6314349  38.7177045  20.7378688  15.3454612  38.8867031
  20.6027688  14.0313099  39.2536915  20.3862625  14.6485814  38.8209421
  22.3544494  16.2415663  50.8969117  22.4641460  15.4524223  51.2525865
  22.6835391  16.1521599  50.0943455  22.4196900  16.1121516  50.8311508
  20.9041456  14.4232283  45.4804738  20.3562402  13.7990167  45.2124803
  21.3654485  14.6126555  44.7648817  20.8908666  14.3591334  45.3355169
  23.7135320   2.4917638  42.8655930  23.1298309   2.9926844  42.4533498
  24.0339615   1.9847194  42.2320254  23.6748496   2.4909473  42.7114437
  16.2530120   1.4058233  33.1414605  17.0745814   1.5756546  32.8996300
  15.7899770   1.5605494  32.4180903  16.3061282   1.4539966  32.9986249
  10.6556010  13.1617411  40.7951842  11.2600868  13.1213245  40.1665663
  10.4483323  14.0088563  40.8255898  10.7144908  13.2805413  40.7067958
  20.4699782  15.4283356  42.0114079  21.2898156  15.2846322  42.2730374
  20.1893860  16.0529555  42.5530517  20.5496526  15.4993708  42.1302019
   5.8907293  12.1452029  40.6650765   5.7931571  11.3348300  40.9740822
   6.6736162  12.1243822  40.2797033   5.9923429  12.0219119  40.6537628
  19.3004058  27.7425255  37.3862224  19.0654242  26.9092908  37.2794492
  19.4389699  28.0229921  36.5723425  19.2859720  27.6608759  37.2504579
  21.5994145  19.9110986  40.2846531  20.9799177  19.3203633  40.1156546
  21.4978009  20.5022421  39.6510855  21.4931821  19.9115069  40.1651521
  21.3263278  23.4563268  42.5290100  21.2021975  24.0425713  43.1639919
  21.9781563  22.9623463  42.8302375  21.4036928  23.4702072  42.6676030
  34.0765312  13.0088447  36.9449880  33.7618753  13.6991926  37.3770302
  33.5592254  12.9533230  36.2435380  33.9529783  13.1023336  36.9046829
  28.1569588  31.1469081  46.2102080  27.5940423  30.7341691  46.7341741
  28.9190612  31.0721987  46.6295223  28.1864037  31.0746481  46.3495080
  29.7654568  23.1521817  30.3363679  30.0050572  23.3599801  29.5239022
  30.0870409  22.3479326  30.4452623  29.8491726  23.0635918  30.2324232
  24.7644486  23.3742689  47.9419125  24.9364990  23.2648584  48.7904406
  25.3013844  24.0197095  47.7050317  24.8689490  23.4534691  48.0324221
  23.4301923  17.4885532  30.8801330  23.2477496  17.7057413  30.0542323
  24.2927536  17.6024545  30.9359944  23.5306513  17.5375430  30.7655817
  23.6669058  29.7474329  42.6237623  24.2067283  29.6045460  43.2940996
  22.9839004  30.1471080  42.9921649  23.6461212  29.7854000  42.7772045
  19.0706203  25.9674620  42.7772045  18.8044618  25.1513737  42.9363035
  19.0844767  26.0127776  41.9067560  19.0330926  25.8531525  42.6725527
  36.0487597  16.2952435  40.8114479  36.6913506  16.3650540  41.3976394
  36.3010618  15.6281658  40.3094020  36.1809729  16.2078784  40.8241758
  23.8204810  19.5052998  45.4239052  23.1276606  19.0349978  45.6699784
  24.4365137  19.2791303  45.9980760  23.8089340  19.4020130  45.5448205
  19.4799617  26.7533400  40.0583789  19.2975190  26.7280286  39.2056081
  20.2149286  27.2232337  40.0972698  19.5613681  26.8194762  39.9381707
  22.5445369  23.4718402  46.5665898  23.2685341  23.4571433  47.0530792
  22.6461505  24.1813758  46.0687866  22.6663578  23.5743106  46.5644684
  29.9190318  26.9517487  51.4314845  29.1263299  27.2660999  51.6167464
  30.0339245  27.1668955  50.5935629  29.8185729  27.0301324  51.3353179
  19.4470527  23.6326900  40.2082856  20.0244030  23.4963351  40.8475101
  18.7484589  23.1762684  40.4628440  19.4291549  23.5449166  40.3405145
  14.9229360  22.4838793  36.9230674  15.0089612  22.1070661  37.7044204
  15.5505158  22.1099239  36.4450632  15.0285911  22.3724275  36.9676151
  20.5105319  31.2530526  40.9762035  20.5509464  31.5245377  40.1481814
  21.0699843  31.7772434  41.3919823  20.5988665  31.3706281  40.9153923
  26.6264032  17.5150895  51.1465205  26.3117473  18.2850457  50.8834767
  26.3053965  16.9521151  50.5617432  26.5322951  17.5461163  51.0206555
  33.3028818  16.0519275  45.0922723  34.0482410  15.8629086  44.6786148
  32.8866122  16.5777513  44.5336579  33.3513792  16.1021421  44.9487296
  23.5941597  26.5190054  38.8350842  23.3054846  25.8927526  39.3696569
  24.4624945  26.4610342  38.9015523  23.6801849  26.4177599  38.9241797
  26.2580538  20.1148146  49.8850419  25.4480313  20.4205925  49.7740262
  26.7355224  20.8353728  50.0003004  26.2084016  20.2662747  49.8857491
  22.5924569  25.6510696  44.7549822  23.1045666  25.9294949  44.1058582
  22.3060912  26.3899990  45.1212635  22.6259433  25.8013050  44.7139700
  19.6791476  20.1580888  35.0513558  19.7807612  20.9607049  35.3794534
  20.4747363  19.9568224  34.7536639  19.8119381  20.2466787  35.0548914
  20.4955208  20.2728066  42.7934680  20.3540700  19.4212007  42.9179188
  20.7795771  20.3156727  41.9696886  20.5163054  20.1527816  42.6902304
  25.6818583  33.0354647  43.2163178  25.8308146  32.4757563  42.5636582
  26.4618585  33.1146648  43.5995697  25.8192676  32.9640212  43.1760127
  28.2071883  33.2069290  44.4947669  28.1315554  32.5378100  45.0498457
  28.1361742  33.9087078  45.0088335  28.1852490  33.2114197  44.6524517
  21.2645513  18.1858414  46.1112130  20.7287703  17.5738772  46.4272898
  21.3263278  18.7606550  46.7645797  21.1941146  18.1805341  46.2547557
  33.4939848  11.1182469  38.8916529  33.6123416  11.5758932  38.1583832
  33.3202024  10.3127730  38.6052747  33.4859019  11.0676241  38.7417463
  23.3834269  25.5939148  35.9232185  23.5398888  25.5285951  36.7788177
  23.7234862  26.3687700  35.7110865  23.4567504  25.6988346  36.0186779
  33.7930521  29.1799679  51.9052460  34.6065386  28.9084828  52.0657593
  33.6325487  28.8807219  51.1012656  33.8900469  29.0954605  51.8097866
  19.9568530  22.7774098  36.2392952  20.3367495  23.1958643  35.5753219
  19.3823895  23.3587554  36.5461795  19.9279855  22.9251957  36.1869693
  30.3295278  22.8782473  50.5659858  30.7994910  23.5024589  50.9527732
  30.3757159  22.2099448  51.1253073  30.4063154  22.8717153  50.7059929
  29.2215927  12.4099446  45.4111774  29.8509045  12.9459746  45.1332845
  29.3901790  12.3176804  46.2625340  29.3393722  12.4760808  45.4960302
  29.0229842  17.1970640  47.6838186  29.8503272  16.9255789  47.7396800
  29.0437688  17.9931482  48.0402004  29.1482692  17.2750394  47.7453369
  23.5999332  24.3434503  40.8708446  22.7587339  24.2438377  41.0787340
  23.8089340  25.1129983  41.2222767  23.5064025  24.4426546  40.9535761
  21.0774899  21.9654040  38.6993197  20.6831597  22.0397052  37.9243307
  20.5215016  22.3511986  39.2501559  20.9377711  22.0335815  38.6660857
  25.4734348  29.4865623  44.8278142  25.3654703  29.4967685  45.6940200
  25.6830129  30.3120403  44.6383096  25.4884459  29.6106698  44.9282233
  35.9673533  15.4967098  37.8599842  35.3547847  15.9837500  38.2453573
  36.0637708  14.8210589  38.4037493  35.8911431  15.4685407  37.9978700
  23.4908140  26.7378265  42.2900079  22.8996073  27.3787763  42.2603094
  24.2529163  27.1615883  42.2631379  23.5156400  26.8954104  42.2815227
  23.8868763  17.8980263  42.9568097  24.3470244  17.9719192  43.6943221
  23.9324869  18.6961517  42.6067918  23.9619318  18.0274410  43.0140853
  25.5352112  18.5646958  47.5240124  25.1437678  17.9180305  47.9595902
  25.7037975  19.1558393  48.1434379  25.5023023  18.5561226  47.6802830
  20.6756540  21.5269454  45.3319813  21.5382153  21.4265163  45.2457143
  20.3448323  20.9464163  44.7705385  20.7541737  21.4261080  45.2365219
  24.2200075  18.6937021  28.0502916  23.8712879  19.3456746  28.5134466
  23.7396521  18.6794134  27.3226788  24.0970319  18.7880075  28.0114008
  20.7484002  28.4112363  43.4333996  20.2183927  27.7204802  43.4828970
  21.0209095  28.4022548  42.6046704  20.7108724  28.3079495  43.3181412
  23.3049072  21.9605051  44.2105100  23.4642559  21.2048375  44.6156822
  23.1241965  22.5095990  44.8645838  23.3014431  21.9298864  44.3667806
  31.2469375  14.1266286  44.7655889  30.7509936  14.3229960  44.0747456
  32.0038437  14.5258954  44.5944691  31.2856199  14.2144020  44.6376026
  16.0279844  25.0840127  40.7902344  15.9223293  25.0386971  39.9254428
  15.2780064  25.4293908  41.0716629  15.9015447  25.1281035  40.7039674
  26.9803190  26.0940190  48.8385239  26.1298820  26.2311904  48.9742884
  27.1431317  25.3603968  49.2832941  26.8787053  26.0054291  48.9240838
  24.0271723  16.5348853  48.6695254  24.6524427  15.9910986  48.9424686
  23.5722203  16.0543771  48.1003044  24.0519984  16.3838334  48.6256848
  21.1277194  24.3830503  34.1611084  21.6369423  24.9795011  34.5422389
  21.6011466  24.1156477  33.4787503  21.2720570  24.4316319  34.1165607
  36.2208101  13.5097654  39.8985730  35.7138966  12.8026794  39.8306908
  37.0175535  13.1790843  40.0286807  36.2635340  13.3570805  39.9084725
  21.2657060  20.3136315  48.0486856  21.0959650  20.9737690  47.5035063
  20.8223010  20.5242876  48.7699345  21.1756394  20.4422297  48.0748485
  30.2960416  19.7922984  47.8386750  30.8531846  19.5636794  47.2065215
  29.9721481  20.5528650  47.5621962  30.3306826  19.8706821  47.7043247
  18.1659124  23.2183180  43.3075346  17.6185844  22.5483826  43.4256214
  18.9551503  22.8513028  43.3718813  18.2011308  23.0648167  43.3344046
  28.0143533  22.8790637  48.8038757  28.7654860  23.1942314  49.1178311
  28.2066109  22.6769808  47.9772679  28.1534947  22.8958019  48.7282153
  16.9246094  22.4303988  40.4621369  16.7467855  21.9780597  41.1876284
  16.6365116  23.2330149  40.6459846  16.8559047  22.4826546  40.5964872
  18.6618564  24.9631712  37.5743128  17.7964083  24.9517402  37.4625899
  18.7617380  24.7761935  38.4214267  18.5492731  24.9337773  37.6832072
  24.2875574  34.7329610  41.1473233  24.6022133  35.5465999  41.1551015
  24.6968987  34.3479829  41.8155393  24.3943672  34.7958313  41.2477325
  28.1569588  14.9227128  45.6735140  28.2897494  14.1258121  46.0016116
  28.5414741  15.4493531  46.2533416  28.2325917  14.8827044  45.8078643
  25.8158035  14.9186303  43.9213034  26.3602448  14.5777430  44.5117376
  25.8694971  15.7771764  44.0634318  25.9047154  14.9941562  44.0294907
  16.8639876  27.6637336  40.6650765  16.7664154  26.8533608  40.9740822
  17.6468746  27.6429130  40.2797033  16.9656013  27.5404427  40.6537628
  55.3972001  59.4781000  49.3370342  56.1038769  58.9833031  49.4657276
  55.5859937  59.9190082  48.6073000  55.5299907  59.4699351  49.2479388
  51.4648676  65.1196831  36.8643776  51.8488055  65.6883729  36.3248551
  51.4007817  64.3946341  36.3849592  51.5122103  65.0972294  36.7137639
  47.8904920  67.6753174  39.1624746  48.5342376  68.1166338  39.5520904
  48.2161176  66.8706600  39.0755005  48.0336749  67.6218369  39.2070223
  50.8372878  60.5150506  41.4584504  51.1196121  59.7201912  41.2371260
  51.5659038  60.9931094  41.4789565  50.9862441  60.4685103  41.4287519
  60.8190966  59.6209869  38.4320335  59.9888669  59.8320512  38.5953751
  60.7700218  58.7946923  38.1562618  60.6897702  59.5299475  38.4157700
  42.8086550  63.6581542  38.6618430  42.3254128  64.3832032  38.6378013
  43.6209868  63.9557672  38.7728588  42.8577297  63.8083896  38.6745709
  48.8800704  62.4513723  41.2668244  48.3627645  62.0921138  40.6629552
  49.5775095  61.9275897  41.2774310  48.9066285  62.3211411  41.1798503
  52.5364296  62.9008537  47.2284417  52.6247641  62.7134677  48.0762628
  52.9654008  62.2545966  46.8289264  52.6126398  62.7771545  47.2956169
  50.1034755  62.1839697  46.2102080  49.5405590  61.7712307  46.7341741
  50.8655779  62.1092602  46.6295223  50.1329204  62.1117097  46.3495080
  45.6630747  64.1737718  38.8138710  46.3651326  63.6589707  38.8711466
  45.5828230  64.5011869  39.6185585  45.7554507  64.1451944  38.9411502
  45.6134225  60.7844945  42.6237623  46.1532450  60.6416076  43.2940996
  44.9304172  61.1841696  42.9921649  45.5926379  60.8224616  42.7772045
  58.0755281  60.2909223  38.5685051  57.6390513  60.2945965  39.3244022
  57.7418197  60.9714722  38.1364628  57.9617901  60.3921679  38.6165883
  52.6484355  62.3317556  49.8928201  53.4324772  62.4448404  50.2583943
  52.4480949  61.5058693  50.0886887  52.7350380  62.2264275  49.9762587
  52.8054748  64.2427658  43.5394656  52.0069994  64.0027158  43.7968525
  53.2540760  64.2942051  44.2861704  52.7529360  64.2150049  43.6879581
  59.3254915  56.8657191  35.0386280  59.6563132  57.3984831  34.4326375
  59.8988003  56.9196079  35.6948231  59.4588594  56.9526760  35.0464062
  51.8655485  57.9888103  51.4314845  51.0728466  58.3031615  51.6167464
  51.9804412  58.2039571  50.5935629  51.7650896  58.0671940  51.3353179
  52.7939278  57.8908307  46.3700141  53.3678140  57.2535551  46.5248705
  52.7154082  57.8912389  45.5009799  52.8672513  57.7973418  46.2646552
  58.1159426  59.2617284  46.3784995  57.8798063  58.4305349  46.2597055
  58.7602655  59.2102891  46.9639839  58.1754097  59.1314972  46.4470888
  59.1395846  59.0461733  42.4413289  58.8341663  59.7789790  42.8026605
  58.4202062  58.6399662  42.1606075  58.9883189  59.0943466  42.4526426
  64.8397639  55.6854734  41.7681633  64.7722139  55.7050693  40.8984220
  64.8253301  56.5285061  41.9937304  64.8276395  55.8128468  41.6734110
  48.6883902  63.4919971  33.5034991  48.9782200  63.1008953  32.7794217
  49.4187382  63.6736676  33.9440266  48.8390786  63.4613785  33.4617798
  46.6289817  65.4687354  36.5695140  46.4090113  65.1784708  37.3621807
  46.4084339  64.8102309  36.0413053  46.5637411  65.3287062  36.6084049
  48.7957773  66.8416744  35.3525833  49.4481831  66.3093186  35.5816859
  48.0983382  66.4885396  35.7393707  48.7888491  66.7106267  35.4438001
  56.7897691  59.1621158  34.6956812  57.3555724  59.8214367  34.6115355
  56.1425595  59.5070856  35.1673214  56.7776448  59.3103099  34.7529569
  53.2604269  62.1059942  34.1193891  53.0190945  61.3727802  33.7120956
  53.4405602  62.6546799  33.4660225  53.2511893  62.0782333  33.9624114
  56.4907016  59.8549131  40.7265949  56.3521376  60.5530177  41.2314692
  55.7107014  59.6997788  40.3702131  56.3550243  59.9349298  40.7492224
  54.8285101  56.1545507  46.9788331  54.8233140  55.2825323  46.9830758
  55.5346095  56.3533676  46.5057787  54.9330105  56.0549381  46.9095366
  47.6283750  64.0725263  43.2163178  47.7773313  63.5128178  42.5636582
  48.4083752  64.1517264  43.5995697  47.7657843  64.0010828  43.1760127
  57.9860389  59.2127385  31.4882449  57.6067198  58.4264523  31.4811738
  57.3226634  59.7614242  31.3454093  57.8318864  59.1772209  31.4663245
  50.1537050  64.2439905  44.4947669  50.0780721  63.5748716  45.0498457
  50.0826909  64.9457694  45.0088335  50.1317657  64.2484813  44.6524517
  50.8107297  62.7640904  35.3271275  51.5757188  62.4950548  35.0053939
  50.7085387  62.2790915  36.0441338  50.9088793  62.6530469  35.3851102
  56.2320488  61.4572876  31.8234134  56.3140325  62.2639862  31.4995585
  56.7170230  61.4768836  32.5474908  56.3157646  61.5793539  31.8821033
  49.5428685  67.6508225  42.9525670  50.0324615  66.9519014  42.7701334
  48.9712917  67.3532095  43.5401727  49.5313215  67.5034449  43.0126710
  55.7395688  60.2170295  51.9052460  56.5530553  59.9455443  52.0657593
  55.5790654  59.9177835  51.1012656  55.8365637  60.1325221  51.8097866
  54.4272518  63.8222700  36.2902069  54.0352310  63.5189415  35.5724936
  54.5825590  64.6591790  36.1007023  54.3926108  63.9006537  36.1558567
  54.5912193  60.3872689  36.2308100  54.2326848  60.5587332  37.0072132
  54.1050904  60.8485895  35.6736099  54.4670890  60.4811660  36.2633369
  55.7516932  61.2776585  47.1775301  56.3896653  60.7836780  46.8437757
  55.1091024  61.2053985  46.5927528  55.7511159  61.1935593  47.0417656
  55.8071189  61.9696393  43.8180658  56.5963567  61.6185458  43.9382739
  55.9814787  62.7832782  43.5557291  55.9491470  62.0382250  43.7968526
  47.4199515  60.5236239  44.8278142  47.3119870  60.5338301  45.6940200
  47.6295297  61.3491019  44.6383096  47.4349626  60.6477314  44.9282233
  55.1962823  63.2258193  39.7232104  54.9982512  63.7149007  39.0288315
  54.5750534  63.4299434  40.3016237  55.0750388  63.3274731  39.7055327
  57.1136625  56.7922345  45.2577352  57.8370824  56.3394871  45.0788372
  56.8486588  57.0727011  44.4749680  57.1817899  56.7673314  45.1156068
  53.7269260  60.0308681  32.1571678  54.4503459  60.4966794  32.0136252
  53.2869851  60.0982291  31.4069275  53.7684952  60.1092518  32.0256460
  37.9745011  56.1210743  40.7902344  37.8688460  56.0757587  39.9254428
  37.2245231  56.4664523  41.0716629  37.8480614  56.1651651  40.7039674
  51.3765329  60.1766128  44.3865796  50.8690420  60.7301975  44.8306426
  51.0791975  60.2374418  43.5684570  51.2570214  60.2672439  44.3314253
  53.9873109  64.0929386  32.3169739  53.2702419  63.9190248  31.8516977
  54.6379847  63.8581958  31.7845225  53.9774960  64.0325178  32.1698957
  50.6207814  65.1090686  41.2922803  50.3973469  64.3509516  41.6606829
  50.1317658  65.1388708  40.5703242  50.5151263  65.0012911  41.2399544
  52.6778804  59.2772419  48.8434736  52.6374659  58.6322096  48.2579892
  53.4902122  59.2209036  49.1560149  52.7921957  59.1731386  48.8031686
  49.2686271  65.3291145  38.7459887  48.8546670  64.6665275  38.3563729
  49.9533645  65.4769003  38.2255582  49.3084643  65.2531803  38.6116385
  52.6351565  64.4881230  39.4983504  52.2367849  64.5983500  38.7304324
  52.0202785  64.6963296  40.0810064  52.4850455  64.5354798  39.4714803
  60.3693408  59.0633197  32.8826595  60.7527014  59.8124553  33.1124692
  59.5737521  59.3099016  32.6238584  60.3087190  59.2102890  32.8784168
  46.2340741  65.7700226  41.1473233  46.5487300  66.5836615  41.1551015
  46.6434154  65.3850445  41.8155393  46.3408839  65.8328929  41.2477325
  53.1865261  61.1870273  38.7177045  53.6576439  61.9010536  38.8867031
  53.5225439  60.5869023  39.2536915  53.3060376  61.2041737  38.8209421
  55.2742245  62.7971586  50.8969117  55.3839211  62.0080147  51.2525865
  55.6033142  62.7077523  50.0943455  55.3394651  62.6677439  50.8311508
  53.8239207  60.9788207  45.4804738  53.2760153  60.3546091  45.2124803
  54.2852236  61.1682479  44.7648817  53.8106416  60.9147257  45.3355169
  53.3897533  61.9839280  42.0114079  54.2095907  61.8402246  42.2730374
  53.1091611  62.6085479  42.5530517  53.4694276  62.0549632  42.1302019
  38.8105043  58.7007952  40.6650765  38.7129321  57.8904224  40.9740822
  39.5933913  58.6799746  40.2797033  38.9121180  58.5775042  40.6537628
  69.8611184  69.6404132  34.9756955  69.8305188  70.4948768  35.1475225
  70.4592532  69.3399424  35.5343099  69.9448341  69.7220628  35.0831758
  63.0610868  68.7279783  39.7309886  62.2048764  68.8888281  39.7819003
  63.1078522  67.8571847  39.7514947  62.9409980  68.6230585  39.7415952
  57.4452008  78.2642501  35.4947118  56.6934908  77.8858039  35.2663163
  57.8938020  78.2960934  34.7465928  57.4001675  78.2128108  35.3504620
  66.3704585  74.9966308  49.3370342  67.0771352  74.5018339  49.4657276
  66.5592520  75.4375390  48.6073000  66.5032491  74.9884659  49.2479388
  65.9062689  70.7871827  42.3741538  66.4518649  71.4656913  42.4335507
  65.8479566  70.6459287  41.5143119  65.9778604  70.8663828  42.2553598
  59.0236764  78.2760893  37.7609890  59.1247127  77.4661247  38.0707018
  58.4278510  78.1817839  37.1309569  58.9509303  78.1425921  37.7136128
  67.6827758  72.2156434  33.2475265  67.5667284  72.9664120  33.6767403
  68.4783645  71.9580387  33.4971352  67.7832347  72.2891281  33.3479357
  52.2201809  74.2981179  37.3862224  51.9851993  73.4648832  37.2794492
  52.3587449  74.5785845  36.5723425  52.2057471  74.2164683  37.2504579
  54.5191896  66.4666910  40.2846531  53.8996928  65.8759557  40.1156546
  54.4175760  67.0578345  39.6510855  54.4129571  66.4670992  40.1651521
  59.5658084  76.2050457  34.5344608  59.8873925  76.7455664  33.9305916
  60.2130180  75.6347228  34.6666898  59.7084139  76.2009632  34.4651643
  61.6159792  68.2066452  34.6178994  62.3139956  68.3854579  35.1100458
  61.9312124  67.6836791  33.9949384  61.7655129  68.1560224  34.5981005
  54.2461029  70.0119192  42.5290100  54.1219726  70.5981637  43.1639919
  54.8979314  69.5179387  42.8302375  54.3234678  70.0257996  42.6676030
  61.8047727  74.5936897  34.6058786  62.2441362  73.9853997  35.0513559
  61.6552390  74.2144270  33.8344251  61.8469193  74.4475368  34.5577953
  59.2719370  73.1880908  41.8077611  59.9168373  72.6953352  41.4888560
  59.5121147  73.3305695  42.6343690  59.4029955  73.1358351  41.8827145
  61.8105461  76.0335814  41.4584504  62.0928704  75.2387220  41.2371260
  62.5391622  76.5116402  41.4789565  61.9595025  75.9870411  41.4287519
  59.7886655  63.5758848  38.7000269  59.4589985  64.0269992  38.0303968
  59.1131657  63.4975012  39.2473276  59.6397092  63.6309983  38.6823492
  65.4057064  72.9464078  31.5589555  65.3208359  73.8025045  31.7039124
  65.8941447  72.6708402  32.2271714  65.4645961  73.0321399  31.6791637
  66.9963063  59.5644371  36.9449880  66.6816504  60.2547850  37.3770302
  66.4790005  59.5089153  36.2435380  66.8727533  59.6579260  36.9046829
  66.3375497  69.5648872  33.0587290  65.8086968  69.7808506  33.7184597
  66.8600517  70.2585011  32.9788260  66.3363950  69.6992009  33.1442890
  58.2275105  73.4612089  31.8594758  57.6432320  73.9662120  32.2660622
  57.8245200  73.2354476  31.1191350  58.0814408  73.5020337  31.8099784
  53.7819133  79.1766850  38.6618430  53.2986711  79.9017340  38.6378013
  54.5942451  79.4742980  38.7728588  53.8309881  79.3269204  38.6745709
  59.8533287  77.9699031  41.2668244  59.3360229  77.6106446  40.6629552
  60.5507679  77.4461205  41.2774310  59.8798868  77.8396719  41.1798503
  61.0767339  77.7025005  46.2102080  60.5138174  77.2897615  46.7341741
  61.8388363  77.6277910  46.6295223  61.1061788  77.6302405  46.3495080
  62.6852319  69.7077741  30.3363679  62.9248323  69.9155725  29.5239022
  63.0068160  68.9035250  30.4452623  62.7689477  69.6191842  30.2324232
  57.9942609  61.6371137  34.1823217  58.7488577  62.0049454  33.9440267
  57.8170144  62.0110691  34.9502396  58.0797088  61.7469325  34.2608105
  56.6363330  79.6923026  38.8138710  57.3383910  79.1775015  38.8711466
  56.5560814  80.0197177  39.6185585  56.7287091  79.6637252  38.9411502
  71.2877508  67.7865577  42.2270756  70.4505929  67.8567764  42.4618351
  71.2565739  67.7890072  41.3545058  71.1595790  67.7975804  42.1330304
  57.6842237  69.9298613  47.9419125  57.8562741  69.8204507  48.7904406
  58.2211595  70.5753018  47.7050317  57.7887241  70.0090615  48.0324221
  56.3499674  64.0441456  30.8801330  56.1675247  64.2613337  30.0542323
  57.2125287  64.1580468  30.9359944  56.4504263  64.0931354  30.7655817
  55.9614106  75.8829378  38.3224318  56.8003005  76.1152311  38.3698079
  55.9925875  75.0133689  38.2531353  56.0895823  75.7886324  38.3188962
  56.5866809  76.3030253  42.6237623  57.1265034  76.1601384  43.2940996
  55.9036755  76.7027004  42.9921649  56.5658963  76.3409924  42.7772045
  62.0299393  61.0467866  33.9150354  62.7585554  60.8683821  33.4688510
  62.1194286  61.8885946  34.1257532  62.1506055  61.1451745  33.8803871
  66.0107694  71.9821254  37.8182648  66.7665209  72.4152768  37.8571556
  66.1170018  71.3326023  38.3917284  66.1377864  71.9498738  37.9080673
  51.9903954  72.5230544  42.7772045  51.7242369  71.7069661  42.9363035
  52.0042518  72.5683699  41.9067560  51.9528676  72.4087449  42.6725527
  68.9685348  62.8508359  40.8114479  69.6111256  62.9206463  41.3976394
  69.2208369  62.1837582  40.3094020  69.1007480  62.7634707  40.8241758
  55.8961701  67.3215628  29.3923803  55.1819878  67.0353808  29.8046235
  56.3805670  67.6612254  30.0330190  55.8621064  67.3297278  29.5479438
  56.7402560  66.0608922  45.4239052  56.0474357  65.5905902  45.6699784
  57.3562888  65.8347227  45.9980760  56.7287090  65.9576054  45.5448205
  63.0709019  75.8245582  29.7685611  63.4860167  75.4930606  29.0770107
  62.2400948  75.5914485  29.6405748  63.0097028  75.7416838  29.6476458
  52.3997368  73.3089323  40.0583789  52.2172941  73.2836209  39.2056081
  53.1347037  73.7788261  40.0972698  52.4811432  73.3750686  39.9381707
  68.4697042  73.5440833  37.2016677  68.7052631  73.6886032  36.3743527
  68.6186605  74.3083241  37.5948190  68.5262845  73.6779888  37.1380280
  55.4643119  70.0274326  46.5665898  56.1883092  70.0127357  47.0530792
  55.5659256  70.7369681  46.0687866  55.5861328  70.1299029  46.5644684
  70.2987499  72.3842499  35.0386280  70.6295716  72.9170139  34.4326375
  70.8720587  72.4381387  35.6948231  70.4321178  72.4712068  35.0464062
  62.8388069  73.5073411  51.4314845  62.0461049  73.8216923  51.6167464
  62.9536996  73.7224879  50.5935629  62.7383479  73.5857247  51.3353179
  65.5119388  70.2307402  35.7209861  65.6066242  70.9696696  36.1749486
  64.8878231  69.8024877  36.1544425  65.4328418  70.2768722  35.8518008
  63.7671862  73.4093615  46.3700141  64.3410723  72.7720859  46.5248705
  63.6886665  73.4097697  45.5009799  63.8405096  73.3158726  46.2646552
  52.3668278  70.1882824  40.2082856  52.9441781  70.0519275  40.8475101
  51.6682340  69.7318608  40.4628440  52.3489299  70.1005090  40.3405145
  65.7642409  72.0756142  28.9546813  65.6822572  72.1458329  29.8201800
  66.4022129  72.6385886  28.7630553  65.8462246  72.1695113  29.0536762
  59.1235580  71.8416880  38.4221339  58.8654824  71.0088615  38.3952638
  59.1784063  72.0674493  37.5813839  59.0935358  71.7514651  38.2941476
  64.2036630  63.9445330  38.5225431  63.4992957  63.4554516  38.6809351
  64.2521605  63.9567805  37.6513876  64.1066682  63.8734978  38.4164771
  58.0970292  69.3954642  38.9086234  57.5219884  69.5546810  39.5450195
  57.7205969  68.7590051  38.4454684  57.9573105  69.3252455  38.9340792
  61.7643581  67.8677991  43.7678612  61.3758014  67.4432209  43.1130803
  61.0998279  68.1160141  44.2755639  61.6090509  67.8416713  43.7466480
  71.4066850  67.6252996  36.5426442  71.1503415  66.8132938  36.3524325
  72.2496164  67.6330563  36.3156629  71.4932875  67.5064994  36.4811259
  47.8427111  69.0394717  36.9230674  47.9287363  68.6626585  37.7044204
  48.4702909  68.6655163  36.4450632  47.9483662  68.9280199  36.9676151
  65.5869942  61.5652620  41.2802596  65.9680454  60.8830791  41.6670470
  64.7833227  61.2762222  41.0978261  65.5246404  61.4219669  41.3106652
  62.8682519  72.0976596  31.9655419  63.6823158  72.3891489  31.8538190
  62.8041660  71.4436458  31.3913712  62.9785258  72.0441791  31.8644256
  58.7390427  75.5698113  37.0927731  59.3764374  75.3309861  37.6379524
  59.1645499  75.7735272  36.3580892  58.8966594  75.5649124  37.0644888
  53.4303070  77.8086450  40.9762035  53.4707215  78.0801301  40.1481814
  53.9897594  78.3328358  41.3919823  53.5186416  77.9262205  40.9153923
  59.3793242  70.7900403  31.4302620  59.7638395  70.5708110  32.1819166
  59.1304863  71.6163349  31.5603697  59.3995315  70.8798549  31.5603697
  59.5461783  64.0706818  51.1465205  59.2315224  64.8406381  50.8834767
  59.2251715  63.5077074  50.5617432  59.4520702  64.1017087  51.0206555
  61.1211899  76.0470536  38.7721517  61.1950908  75.8845708  39.6263367
  61.9381406  76.2360726  38.5281999  61.2528258  76.0507278  38.8619543
  54.8817656  76.3928399  35.8015961  54.0555774  76.6390136  35.6750240
  54.9429647  76.3140480  36.6678019  54.7691823  76.4173348  35.9104905
  57.0993680  62.4597340  36.7611401  56.2316105  62.5319939  36.8269010
  57.3868884  63.2619419  36.9499376  57.0133428  62.5891487  36.7986168
  66.2226569  62.6075199  45.0922723  66.9680161  62.4185010  44.6786148
  65.8063873  63.1333437  44.5336579  66.2711543  62.6577345  44.9487296
  59.6616485  79.0105279  33.5034991  59.9514784  78.6194260  32.7794217
  60.3919966  79.1921984  33.9440266  59.8123369  78.9799093  33.4617798
  73.5988839  69.9784428  40.0428228  74.1496761  69.3452497  40.2825320
  73.5832955  70.5099821  40.7343732  73.6774036  69.9633376  40.1807086
  60.2511230  73.8123025  44.5888121  59.7522924  74.5238793  44.6673010
  61.0611455  74.1323692  44.5506284  60.2967337  73.9649874  44.5944690
  57.6022401  80.9872662  36.5695140  57.3822696  80.6970016  37.3621807
  57.3816923  80.3287617  36.0413053  57.5369995  80.8472370  36.6084049
  56.5139348  73.0745978  38.8350842  56.2252597  72.4483449  39.3696569
  57.3822696  73.0166265  38.9015523  56.5999600  72.9733522  38.9241797
  67.3017246  68.2180761  39.1532824  66.9582012  67.4971097  39.5040074
  67.4010288  68.0094613  38.3111182  67.2659289  68.0804965  39.0804504
  56.7171621  74.7141229  34.7593207  57.4717589  75.0954268  34.9728670
  56.1242234  75.1652373  35.2139904  56.7408335  74.8370056  34.8576086
  59.1778288  66.6704069  49.8850419  58.3678064  66.9761849  49.7740262
  59.6552975  67.3909652  50.0003004  59.1281767  66.8218671  49.8857491
  58.0369848  75.8849790  40.1333323  57.5150601  76.0250082  40.8185187
  58.4243868  75.1260455  40.3235440  58.0173549  75.7935314  40.2634399
  55.0261032  65.9355599  34.2028277  54.7385828  65.5656870  33.4660225
  55.7131500  66.4050455  33.9411982  55.0849929  65.9502569  34.0543353
  59.4636173  72.9153809  35.5314814  59.2678956  73.5228544  34.9375117
  59.6870519  72.2221753  35.0506488  59.4670815  72.9031335  35.3730894
  57.8614704  69.8008547  35.6495682  58.5837355  69.9649706  35.1899488
  57.3822696  70.5218212  35.5435022  57.8978434  69.9306777  35.5661296
  65.8208211  66.1372346  41.0292367  64.9819312  66.1633625  40.7930630
  65.8912578  66.7843082  41.6097714  65.7076605  66.2368472  41.0801484
  55.5122320  72.2066620  44.7549822  56.0243417  72.4850873  44.1058582
  55.2258663  72.9455914  45.1212635  55.5457183  72.3568973  44.7139700
  64.2677489  63.0357723  35.7619983  64.9703842  62.8365472  35.2839941
  64.0021678  62.2633666  36.0688826  64.3324122  62.8920689  35.7365424
  69.6965735  71.3440333  38.3153609  69.6099709  71.4995759  39.1688387
  69.2416215  71.9878408  37.9413014  69.6168992  71.4616088  38.3860715
  52.5989227  66.7136812  35.0513558  52.7005363  67.5162973  35.3794534
  53.3945113  66.5124148  34.7536639  52.7317132  66.8022710  35.0548914
  59.0306046  64.2993008  44.8150863  58.8389243  64.3148143  45.6650287
  59.8804642  64.4956683  44.7917518  59.1281768  64.3307360  44.9374158
  53.4152959  66.8283990  42.7934680  53.2738450  65.9767931  42.9179188
  53.6993522  66.8712651  41.9696886  53.4360805  66.7083740  42.6902304
  63.5691551  68.6651080  36.9379168  63.3226265  68.5846831  37.7715957
  63.8976674  67.8804548  36.7441696  63.5812795  68.5377345  37.0326691
  65.8017685  71.6730815  46.9788331  65.7965723  70.8010631  46.9830758
  66.5078679  71.8718984  46.5057787  65.9062689  71.5734689  46.9095366
  59.5288578  71.4007799  46.3502151  59.6731954  71.9809007  45.7145261
  59.8764227  71.7784095  47.0552006  59.6016040  71.5428503  46.3601146
  61.7008496  70.5997967  44.1327283  60.9531810  70.7928981  43.7275561
  61.8550021  69.7743187  43.8951404  61.6130923  70.5063078  44.0372689
  58.6016333  79.5910570  43.2163178  58.7505897  79.0313486  42.5636582
  59.3816335  79.6702572  43.5995697  58.7390427  79.5196136  43.1760127
  61.9410273  64.4948518  45.0222687  62.3982887  65.2272492  45.1495479
  62.0166601  64.0714983  45.7809942  62.0201242  64.5405756  45.1523763
  54.1843264  64.7414337  46.1112130  53.6485453  64.1294696  46.4272898
  54.2461029  65.3162473  46.7645797  54.1138897  64.7361265  46.2547557
  66.4137599  57.6738393  38.8916529  66.5321167  58.1314856  38.1583832
  66.2399774  56.8683654  38.6052747  66.4056770  57.6232165  38.7417463
  61.7839881  78.2826212  35.3271275  62.5489772  78.0135856  35.0053939
  61.6817971  77.7976223  36.0441338  61.8821376  78.1715777  35.3851102
  59.8192651  66.4850622  41.8664511  59.0288725  66.3042082  42.1881846
  60.2153273  65.7077574  41.8494805  59.7609527  66.3438083  41.9117059
  64.3058541  75.3138396  27.3071224  65.0731526  75.3738521  26.8977076
  63.8589850  74.7418837  26.8227543  64.3531969  75.2374972  27.1748934
  65.2036337  74.1193052  39.5923956  64.5281339  73.8878284  40.0937344
  65.2128713  73.5114235  38.9666062  65.1054841  73.9951977  39.5740109
  62.3330481  68.9610881  46.3488009  62.2689622  69.8220837  46.2208146
  62.4727669  68.6442874  45.5483561  62.3445951  69.0411047  46.2116222
  61.0149575  71.6543020  40.4904212  60.5911824  71.8547519  39.7543231
  60.8394430  70.8071868  40.6028512  60.9260455  71.5591802  40.3977902
  56.3032020  72.1495072  35.9232185  56.4596639  72.0841874  36.7788177
  56.6432613  72.9243624  35.7110865  56.3765255  72.2544270  36.0186779
  62.8411164  71.5252955  34.7925548  63.3826710  71.0223336  35.2564169
  63.1557723  71.4718150  33.9815033  62.9675561  71.4432376  34.7409360
  61.0097614  76.9170307  32.0765576  61.0790434  76.0584845  32.2158577
  61.7886069  77.1342188  31.7484601  61.1350464  76.8223171  32.0482733
  63.9900434  66.4189260  44.8447849  64.2042403  65.7800174  44.2911203
  63.3734333  66.8635084  44.4155710  63.9305763  66.3899403  44.6998280
  52.8766281  69.3330022  36.2392952  53.2565246  69.7514567  35.5753219
  52.3021646  69.9143478  36.5461795  52.8477606  69.4807881  36.1869693
  66.1539522  68.0278325  45.7831156  65.3416203  67.7204215  45.8644328
  66.6129456  67.5477325  46.3473868  66.1019906  67.9114817  45.8785750
  65.5644776  75.9057997  36.2308100  65.2059431  76.0772640  37.0072132
  65.0783487  76.3671202  35.6736099  65.4403473  75.9996968  36.2633369
  63.3815162  59.5289195  39.8335191  62.5108720  59.5027916  39.7868501
  63.6355504  59.3566387  39.0161037  63.2908722  59.4999339  39.7055328
  60.3533142  71.5857162  28.7708334  60.6425667  72.3622045  29.0451909
  60.4404941  71.0745894  29.4722834  60.4087398  71.6249081  28.9150832
  63.2493029  69.4338396  50.5659858  63.7192660  70.0580513  50.9527732
  63.2954909  68.7655372  51.1253073  63.3260905  69.4273077  50.7059929
  60.4064303  61.5395424  41.2908662  59.8902791  60.8475615  41.4160241
  59.8458232  62.2066201  41.2371261  60.2470816  61.5358681  41.3014728
  62.4756536  62.0788384  43.1201514  62.0888289  62.1037415  43.9015044
  61.9889474  61.5130062  42.6676031  62.3469045  61.9984135  43.1689418
  68.4506516  68.6451039  41.7441217  68.0234124  68.5577387  40.9889316
  67.8132569  68.7528814  42.3296061  68.2936123  68.6483699  41.7186658
  62.1413678  58.9655369  45.4111774  62.7706796  59.5015669  45.1332845
  62.3099541  58.8732728  46.2625340  62.2591473  59.0316732  45.4960302
  61.9427593  63.7526564  47.6838186  62.7701022  63.4811713  47.7396800
  61.9635439  64.5487406  48.0402004  62.0680443  63.8306318  47.7453369
  56.5197083  70.8990427  40.8708446  55.6785089  70.7994301  41.0787340
  56.7287091  71.6685907  41.2222767  56.4261775  70.9982470  40.9535761
  53.9972650  68.5209964  38.6993197  53.6029347  68.5952976  37.9243307
  53.4412767  68.9067910  39.2501559  53.8575462  68.5891738  38.6660857
  65.6337596  61.4991258  38.3797076  65.8387190  61.4313566  39.2254073
  65.3064020  62.3050079  38.3118253  65.6152844  61.6077198  38.4956731
  60.3313748  68.8271826  40.1206044  60.0276885  68.2727814  40.7216452
  59.6293168  69.0064036  39.6334078  60.1829957  68.7716608  40.1375750
  59.3879845  66.1372346  34.6850746  59.6639579  65.4191258  34.2728313
  59.9878514  66.7357266  34.4771852  59.5173109  66.1192717  34.5931507
  58.3932099  76.0421547  44.8278142  58.2852454  76.0523609  45.6940200
  58.6027880  76.8676327  44.6383096  58.4082210  76.1662621  44.9282233
  68.8871284  62.0523022  37.8599842  68.2745598  62.5393424  38.2453573
  68.9835459  61.3766513  38.4037493  68.8109182  62.0241331  37.9978700
  62.8890365  63.8085863  32.9597341  63.3434112  63.9796424  33.6845185
  63.3630411  63.1953974  32.5595117  63.0258685  63.7436748  33.0071102
  56.4105891  73.2934189  42.2900079  55.8193824  73.9343687  42.2603094
  57.1726914  73.7171806  42.2631379  56.4354151  73.4510028  42.2815227
  56.8066513  64.4536187  42.9568097  57.2667995  64.5275116  43.6943221
  56.8522620  65.2517441  42.6067918  56.8817069  64.5830334  43.0140853
  58.4549863  65.1202882  47.5240124  58.0635428  64.4736229  47.9595902
  58.6235726  65.7114317  48.1434379  58.4220773  65.1117150  47.6802830
  60.2303385  70.5128397  34.0642348  60.9745430  70.9002674  34.3025298
  60.3764081  69.6685823  34.2282836  60.3613970  70.4458870  34.1236318
  63.2181261  66.0853871  39.9636267  62.7441215  65.5595633  40.4741578
  63.5899397  65.5383344  39.3951129  63.2031150  65.9269867  39.9551415
  53.5954291  68.0825378  45.3319813  54.4579904  67.9821087  45.2457143
  53.2646074  67.5020087  44.7705385  53.6739488  67.9817004  45.2365219
  69.4817992  71.1456246  41.3743048  69.2416215  70.3062662  41.3785474
  69.9609999  71.2256413  42.0983821  69.5170175  71.0337646  41.4817850
  65.1464761  66.9790425  33.0262021  64.6187779  67.0619169  32.3367730
  65.6060469  67.7208297  33.0226666  65.1366611  67.1011088  32.9236716
  71.4823179  67.9257704  39.3272307  71.2432949  67.8853538  38.4893092
  71.6457080  68.7728856  39.4538028  71.4713482  68.0449789  39.2225789
  68.0869209  72.3107653  45.2577352  68.8103408  71.8580179  45.0788372
  67.8219171  72.5912319  44.4749680  68.1550482  72.2858621  45.1156068
  56.9556077  66.9067827  41.9930231  56.3309147  66.9186218  41.3856184
  56.6201672  67.3828002  42.6421472  56.8141569  66.9786344  41.9986800
  57.1397826  65.2492945  28.0502916  56.7910630  65.9012670  28.5134466
  56.6594272  65.2350058  27.3226788  57.0168070  65.3435999  28.0114008
  53.6681753  74.9668287  43.4333996  53.1381677  74.2760726  43.4828970
  53.9406846  74.9578472  42.6046704  53.6306475  74.8635418  43.3181412
  64.7001843  75.5493989  32.1571678  65.4236042  76.0152102  32.0136252
  64.2602434  75.6167599  31.4069275  64.7417535  75.6277826  32.0256460
  63.8687998  72.4091531  43.4072367  63.2544991  71.8649582  43.7021003
  64.3855283  71.8955768  42.9278183  63.8543661  72.2527940  43.3796596
  63.1084295  73.4795801  41.1416666  62.6811903  72.8545520  40.7082101
  63.1009240  73.1970723  41.9675673  63.0443437  73.3448582  41.1996493
  56.2246823  68.5160974  44.2105100  56.3840309  67.7604298  44.6156822
  56.0439716  69.0651914  44.8645838  56.2212182  68.4854788  44.3667806
  64.1667126  60.6822210  44.7655889  63.6707687  60.8785884  44.0747456
  64.9236188  61.0814878  44.5944691  64.2053950  60.7699944  44.6376026
  61.4370005  64.3564556  41.3559200  61.4612492  63.8224668  40.6671980
  61.6881479  63.8481865  42.0184791  61.4779924  64.2025460  41.3523845
  48.9477595  71.6396051  40.7902344  48.8421044  71.5942895  39.9254428
  48.1977815  71.9849831  41.0716629  48.8213198  71.6836959  40.7039674
  57.7171327  63.0835374  40.7364944  57.7569699  63.5844581  41.4499652
  56.8920992  63.1745768  40.4670867  57.6010853  63.1717190  40.8015482
  59.9000940  72.6496114  48.8385239  59.0496571  72.7867828  48.9742884
  60.0629068  71.9159892  49.2832941  59.7984804  72.5610215  48.9240838
  59.1385691  69.5995884  43.0338843  58.3077620  69.7669702  42.8274091
  59.0837208  69.2231835  43.8187729  59.0075106  69.5685615  43.1187371
  56.9469474  63.0904777  48.6695254  57.5722177  62.5466910  48.9424686
  56.4919954  62.6099694  48.1003044  56.9717735  62.9394258  48.6256848
  57.5121735  67.8751475  33.5628961  57.6524696  68.3723940  34.2657602
  58.0104267  67.1737770  33.7043175  57.6062815  67.8453454  33.6880540
  57.5421957  68.7418586  30.8921538  58.1767036  69.3379011  30.8271000
  57.6247568  68.4422044  31.7067408  57.6478508  68.7859495  31.0024624
  70.5204523  71.2734064  43.7607902  71.1122363  71.9131315  43.7926100
  70.9563517  70.5757101  44.0499969  70.6722954  71.2652414  43.8088735
  59.1200940  64.6732562  30.8666980  59.4416781  64.1935644  30.2126242
  59.3827884  65.4832208  30.6757791  59.2066965  64.7222460  30.7422472
  62.3497913  75.6951436  44.3865796  61.8423004  76.2487283  44.8306426
  62.0524559  75.7559726  43.5684570  62.2302798  75.7857747  44.3314253
  64.5160095  64.0604756  43.2290459  64.9415166  63.6077282  42.6173985
  63.9017088  63.5064827  43.5055246  64.4888740  63.9118732  43.1795484
  54.0474945  70.9386427  34.1611084  54.5567174  71.5350935  34.5422389
  54.5209217  70.6712401  33.4787503  54.1918321  70.9872243  34.1165607
  62.9554318  60.5319856  36.6381036  62.3122636  60.3817502  37.2066174
  62.6153725  60.2862201  35.8730140  62.8099395  60.4731978  36.6084051
  67.5453664  68.4879282  36.0611044  66.8744854  69.0308985  35.9324110
  68.2393414  68.9574138  35.8192739  67.5482532  68.6377554  36.0066572
  67.7081792  64.9435166  38.9701418  68.0609402  64.5164889  39.6447216
  66.8496593  64.8586010  39.1002494  67.6331236  64.8679907  39.0896428
  56.4065477  67.5742686  37.0284264  55.6877466  67.9906818  37.2957128
  56.7777839  68.1396925  36.4775902  56.3557408  67.7191967  36.9867071
  65.7065057  68.2070535  42.9186260  65.6862985  68.0253830  43.7721039
  65.7544258  69.0782553  42.8945844  65.7099698  68.3087073  43.0409555
  63.6511387  74.7957727  48.8434736  63.6107242  74.1507404  48.2579892
  64.4634706  74.7394344  49.1560149  63.7654541  74.6916693  48.8031686
  62.1812051  66.6140686  32.3657644  61.5876890  66.9357682  31.8142211
  62.2187329  65.7681781  32.1578750  62.0986440  66.5365014  32.2540415
  69.1405852  60.0653578  39.8985730  68.6336716  59.3582717  39.8306908
  69.9373285  59.7346767  40.0286807  69.1833091  59.9126729  39.9084725
  65.0569868  66.5720190  35.7959394  64.8283561  66.5952892  34.9537752
  65.3167944  65.7477657  35.9154404  65.0616056  66.4536270  35.6884592
  59.3389096  68.4254663  45.3984494  58.8267999  67.8175846  45.7569525
  59.1668592  69.1411256  45.8658470  59.2378733  68.4417962  45.5200718
  54.1854811  66.8692239  48.0486856  54.0157401  67.5293613  47.5035063
  53.7420761  67.0798800  48.7699345  54.0954144  66.9978221  48.0748485
  58.1114630  65.1096736  37.0913590  58.5871996  65.4713816  36.4563771
  57.6103230  65.7653204  37.3713732  58.1079989  65.2590925  37.0390331
  63.2158166  66.3478908  47.8386750  63.7729596  66.1192717  47.2065215
  62.8919231  67.1084573  47.5621962  63.2504576  66.4262745  47.7043247
  51.0856875  69.7739104  43.3075346  50.5383595  69.1039750  43.4256214
  51.8749253  69.4068952  43.3718813  51.1209059  69.6204090  43.3344046
  60.9341284  69.4346561  48.8038757  61.6852611  69.7498238  49.1178311
  61.1263860  69.2325732  47.9772679  61.0732698  69.4513943  48.7282153
  60.1541283  67.2537936  30.4586974  60.5340248  67.2717565  29.6738088
  59.4133879  67.6991925  30.3377821  60.1010121  67.3219711  30.3250542
  67.7826574  65.5620127  36.0462552  67.7820800  65.4068784  36.9046829
  67.5782754  66.4083115  35.9903938  67.7526352  65.6640748  36.1650492
  49.8443845  68.9859912  40.4621369  49.6665606  68.5336521  41.1876284
  49.5562867  69.7886073  40.6459846  49.7756798  69.0382470  40.5964872
  65.5067426  70.2417629  39.6998759  66.0021091  69.5240624  39.6602779
  64.6967201  69.9388427  39.5853246  65.4611319  70.0915276  39.6772485
  60.9526037  74.0915442  31.8495764  60.1437360  73.7682116  31.8029073
  61.4600946  73.3848665  31.7824012  60.9075704  73.9396759  31.8326058
  51.5816315  71.5187636  37.5743128  50.7161834  71.5073326  37.4625899
  51.6815130  71.3317858  38.4214267  51.4690482  71.4893697  37.6832072
  67.5719245  72.9921317  42.3875888  67.9974316  72.4695739  41.8346313
  67.2076164  73.5902154  41.8664511  67.5805847  73.0031544  42.2284898
  57.2073324  81.2885534  41.1473233  57.5219883  82.1021923  41.1551015
  57.6166738  80.9035753  41.8155393  57.3141422  81.3514237  41.2477325
  64.1597844  76.7055581  38.7177045  64.6309022  77.4195844  38.8867031
  64.4958023  76.1054331  39.2536915  64.2792959  76.7227045  38.8209421
  61.0767339  61.4783052  45.6735140  61.2095245  60.6814045  46.0016116
  61.4612492  62.0049455  46.2533416  61.1523668  61.4382968  45.8078643
  64.7971790  76.4973515  45.4804738  64.2492736  75.8731399  45.2124803
  65.2584819  76.6867787  44.7648817  64.7839000  76.4332565  45.3355169
  64.1499694  58.4013378  42.2716233  63.3445658  58.2911107  42.5884072
  64.0206430  58.5025833  41.4146099  64.0119827  58.3997048  42.1924274
  60.1460454  63.4799464  33.1414605  60.9676148  63.6497777  32.8996300
  59.6830105  63.6346725  32.4180903  60.1991616  63.5281197  32.9986249
  58.7355786  61.4742227  43.9213034  59.2800199  61.1333353  44.5117376
  58.7892722  62.3327688  44.0634318  58.8244905  61.5497486  44.0294907
  54.5486345  75.2358643  40.7951842  55.1531202  75.1954477  40.1665663
  54.3413657  76.0829795  40.8255898  54.6075242  75.3546645  40.7067958
  49.7837627  74.2193260  40.6650765  49.6861905  73.4089532  40.9740822
  50.5666497  74.1985054  40.2797033  49.8853763  74.0960350  40.6537628
  36.6364257   0.0226339  21.9097002  36.6058261   0.8770976  22.0815272
  37.2345605  -0.2778368  22.4683146  36.7201415   0.1042836  22.0171805
  29.8363942  -0.8898010  26.6649933  28.9801837  -0.7289512  26.7159050
  29.8831595  -1.7605946  26.6854994  29.7163053  -0.9947208  26.6755999
  24.2205081   8.6464708  22.4287164  23.4687981   8.2680246  22.2003209
  24.6691093   8.6783142  21.6805975  24.1754748   8.5950315  22.2844666
  33.1457658   5.3788516  36.2710389  33.8524425   4.8840546  36.3997323
  33.3345594   5.8197597  35.5413047  33.2785564   5.3706866  36.1819434
  29.6730041   9.0690077  17.8572711  29.3381410   9.7466999  17.4216934
  30.1856912   8.6795389  17.2689583  29.6995622   9.1114656  17.7059503
  29.2134332  11.0204346  23.7983823  29.5973712  11.5891245  23.2588598
  29.1493474  10.2953856  23.3189639  29.2607760  10.9979810  23.6477686
  32.6815763   1.1694034  29.3081584  33.2271723   1.8479121  29.3675554
  32.6232639   1.0281495  28.4483166  32.7531677   1.2486036  29.1893645
  34.4580831   2.5978641  20.1815312  34.3420357   3.3486327  20.6107450
  35.2536718   2.3402594  20.4311399  34.5585421   2.6713488  20.2819404
  25.6390577  13.5760689  26.0964793  26.2828033  14.0173853  26.4860951
  25.9646833  12.7714115  26.0095052  25.7822406  13.5225884  26.1410270
  18.9954882   4.6803387  24.3202270  18.7605066   3.8471039  24.2134539
  19.1340522   4.9608052  23.5063471  18.9810544   4.5986890  24.1844625
  26.3411157   6.5872664  21.4684655  26.6626998   7.1277871  20.8645963
  26.9883253   6.0169435  21.6006944  26.4837212   6.5831839  21.3991690
  28.3912865  -1.4111341  21.5519041  29.0893030  -1.2323213  22.0440505
  28.7065197  -1.9341002  20.9289431  28.5408202  -1.4617569  21.5321051
  21.0214102   0.3941399  29.4630147  20.8972799   0.9803844  30.0979966
  21.6732387  -0.0998405  29.7642422  21.0987752   0.4080203  29.6016076
  28.5800800   4.9759104  21.5398833  29.0194436   4.3676205  21.9853606
  28.4305463   4.5966477  20.7684298  28.6222266   4.8297575  21.4918000
  26.0472443   3.5703116  28.7417658  26.6921446   3.0775559  28.4228607
  26.2874220   3.7127902  29.5683737  26.1783028   3.5180558  28.8167191
  28.5858535   6.4158022  28.3924551  28.8681777   5.6209427  28.1711307
  29.3144695   6.8938609  28.4129612  28.7348098   6.3692619  28.3627566
  32.1810137   3.3286285  18.4929602  32.0961432   4.1847252  18.6379171
  32.6694520   3.0530609  19.1611761  32.2399034   3.4143607  18.6131684
  33.1128570  -0.0528920  19.9927337  32.5840041   0.1630713  20.6524643
  33.6353590   0.6407218  19.9128306  33.1117023   0.0814216  20.0782936
  38.5676623   5.5217384  25.3660382  37.7374326   5.7328028  25.5293798
  38.5185875   4.6954439  25.0902665  38.4383358   5.4306990  25.3497747
  20.5572206   9.5589057  25.5958477  20.0739785  10.2839547  25.5718060
  21.3695525   9.8565187  25.7068634  20.6062954   9.7091411  25.6085756
  26.6286360   8.3521238  28.2008291  26.1113302   7.9928653  27.5969599
  27.3260752   7.8283413  28.2114357  26.6551942   8.2218926  28.1138550
  30.2849952   8.8016052  34.1624464  30.3733298   8.6142193  35.0102674
  30.7139665   8.1553482  33.7629311  30.3612055   8.6779060  34.2296216
  27.8520412   8.0847212  33.1442126  27.2891247   7.6719822  33.6681788
  28.6141436   8.0100118  33.5635270  27.8814861   8.0124613  33.2835127
  23.4116404  10.0745233  25.7478756  24.1136983   9.5597222  25.8051513
  23.3313887  10.4019385  26.5525632  23.5040164  10.0459460  25.8751549
  38.0630581  -1.8312215  29.1610803  37.2259002  -1.7610028  29.3958397
  38.0318812  -1.8287721  28.2885105  37.9348864  -1.8201988  29.0670351
  24.4595310   0.3120820  34.8759172  24.6315814   0.2026715  35.7244453
  24.9964668   0.9575226  34.6390364  24.5640314   0.3912822  34.9664268
  22.7367179   6.2651585  25.2564365  23.5756079   6.4974518  25.3038126
  22.7678948   5.3955897  25.1871400  22.8648897   6.1708532  25.2529009
  23.3619882   6.6852461  29.5577670  23.9018107   6.5423592  30.2281042
  22.6789828   7.0849211  29.9261696  23.3412036   6.7232131  29.7112092
  32.7860767   2.3643461  24.7522694  33.5418282   2.7974975  24.7911603
  32.8923091   1.7148231  25.3257330  32.9130938   2.3320945  24.8420720
  35.8240938   6.1916738  25.5025097  35.3876170   6.1953481  26.2584069
  35.4903854   6.8722237  25.0704675  35.7103558   6.2929194  25.5505930
  30.3970012   8.2325071  36.8268248  31.1810428   8.3455919  37.1923990
  30.1966606   7.4066208  37.0226934  30.4836037   8.1271791  36.9102634
  18.7657027   2.9052751  29.7112092  18.4995442   2.0891868  29.8703082
  18.7795591   2.9505907  28.8407607  18.7281749   2.7909656  29.6065574
  30.5540405  10.1435173  30.4734703  29.7555651   9.9034673  30.7308572
  31.0026417  10.1949566  31.2201751  30.5015016  10.1157564  30.6219628
  38.9585284   2.9097658  24.3944735  39.6201718   2.3488327  24.2940643
  38.3176696   2.4149689  24.7197426  38.9614152   2.7534067  24.4277075
  29.8462092   6.2067790  16.7025658  30.2613241   5.8752814  16.0110154
  29.0154022   5.9736692  16.5745795  29.7850101   6.1239046  16.5816505
  19.1750441   3.6911531  26.9923836  18.9926014   3.6658417  26.1396128
  19.9100110   4.1610469  27.0312745  19.2564505   3.7572893  26.8721754
  35.2450115   3.9263041  24.1356723  35.4805704   4.0708240  23.3083574
  35.3939679   4.6905449  24.5288237  35.3015918   4.0602095  24.0720327
  22.2396193   0.4096534  33.5005944  22.9636165   0.3949564  33.9870839
  22.3412329   1.1191889  33.0027913  22.3614402   0.5121237  33.4984731
  37.0740572   2.7664707  21.9726327  37.4048789   3.2992347  21.3666422
  37.6473660   2.8203594  22.6288278  37.2074251   2.8534275  21.9804109
  29.6141142   3.8895618  38.3654891  28.8214123   4.2039130  38.5507511
  29.7290069   4.1047087  37.5275676  29.5136552   3.9679455  38.2693226
  32.2872461   0.6129609  22.6549907  32.3819315   1.3518903  23.1089533
  31.6631304   0.1847085  23.0884472  32.2081491   0.6590930  22.7858055
  30.5424935   3.7915822  33.3040188  31.1163796   3.1543066  33.4588752
  30.4639738   3.7919904  32.4349846  30.6158170   3.6980933  33.1986599
  19.1421351   0.5705031  27.1422902  19.7194854   0.4341482  27.7815148
  18.4435413   0.1140816  27.3968487  19.1242373   0.4827298  27.2745192
  25.8988653   2.2239087  25.3561386  25.6407898   1.3910822  25.3292685
  25.9537136   2.4496700  24.5153886  25.8688431   2.1336858  25.2281522
  24.8723366  -0.2223150  25.8426280  24.2972957  -0.0630982  26.4790241
  24.4959042  -0.8587741  25.3794731  24.7326178  -0.2925338  25.8680839
  28.5396654  -1.7499801  30.7018659  28.1511087  -2.1745583  30.0470850
  27.8751352  -1.5017652  31.2095685  28.3843582  -1.7761080  30.6806527
  29.6435592   2.4798803  18.8995466  30.4576231   2.7713696  18.7878237
  29.5794734   1.8258666  18.3253759  29.7538331   2.4263998  18.7984303
  35.8645083   5.1624800  33.3125041  35.6283720   4.3312864  33.1937102
  36.5088311   5.1110407  33.8979886  35.9239753   5.0322487  33.3810935
  25.5143501   5.9520321  24.0267778  26.1517448   5.7132068  24.5719571
  25.9398572   6.1557480  23.2920938  25.6719667   5.9471331  23.9984935
  20.2056143   8.1908657  27.9102082  20.2460288   8.4623508  27.0821861
  20.7650667   8.7150565  28.3259870  20.2939489   8.3084412  27.8493970
  36.8881503   4.9469248  29.3753336  36.5827320   5.6797305  29.7366652
  36.1687719   4.5407178  29.0946122  36.7368845   4.9950981  29.3866473
  27.8964973   6.4292743  25.7061564  27.9703981   6.2667915  26.5603414
  28.7134479   6.6182933  25.4622046  28.0281331   6.4329486  25.7959590
  42.5883295   1.5862249  28.7021680  42.5207796   1.6058208  27.8324267
  42.5738958   2.4292576  28.9277351  42.5762052   1.7135984  28.6074157
  21.6570729   6.7750606  22.7356008  20.8308847   7.0212343  22.6090286
  21.7182721   6.6962687  23.6018066  21.5444896   6.7995555  22.8444952
  26.4369558   9.3927487  20.4375038  26.7267857   9.0016468  19.7134264
  27.1673039   9.5744191  20.8780313  26.5876443   9.3621300  20.3957845
  40.3741913   0.3606635  26.9768275  40.9249834  -0.2725296  27.2165367
  40.3586028   0.8922028  27.6683779  40.4527109   0.3455583  27.1147133
  27.0264304   4.1945232  31.5228168  26.5275997   4.9061000  31.6013056
  27.8364528   4.5145899  31.4846330  27.0720410   4.3472081  31.5284737
  24.3775474  11.3694869  23.5035187  24.1575769  11.0792224  24.2961854
  24.1569996  10.7109824  22.9753100  24.3123068  11.2294577  23.5424096
  23.2892421   3.4568185  25.7690889  23.0005670   2.8305657  26.3036616
  24.1575769   3.3988473  25.8355569  23.3752673   3.3555730  25.8581843
  34.0770319  -1.3997031  26.0872871  33.7335085  -2.1206696  26.4380120
  34.1763361  -1.6083180  25.2451229  34.0412362  -1.5372828  26.0144551
  26.5443430  12.7424259  22.2865880  27.1967488  12.2100701  22.5156906
  25.8469038  12.3892911  22.6733754  26.5374148  12.6113782  22.3778047
  23.4924694   5.0963437  21.6933254  24.2470662   5.4776476  21.9068716
  22.8995307   5.5474580  22.1479950  23.5161408   5.2192264  21.7916132
  34.5383348   5.0628673  21.6296859  35.1041381   5.7221883  21.5455402
  33.8911251   5.4078371  22.1013261  34.5262104   5.2110614  21.6869615
  25.9531362  -2.9473723  36.8190466  25.1431137  -2.6415943  36.7080309
  26.4306048  -2.2268141  36.9343050  25.9034840  -2.7959122  36.8197537
  24.8122921   6.2671998  27.0673369  24.2903675   6.4072290  27.7525234
  25.1996941   5.5082662  27.2575487  24.7926622   6.1757522  27.1974446
  31.0089926   8.0067457  21.0533938  30.7676602   7.2735318  20.6461003
  31.1891259   8.5554314  20.4000271  30.9997550   7.9789848  20.8964161
  26.2389247   3.2976017  22.4654860  26.0432029   3.9050751  21.8715163
  26.4623592   2.6043961  21.9846534  26.2423888   3.2853542  22.3070941
  24.6367777   0.1830755  22.5835729  25.3590429   0.3471913  22.1239535
  24.1575769   0.9040420  22.4775069  24.6731507   0.3128984  22.5001343
  32.5961284  -3.4805446  27.9632414  31.7572385  -3.4544168  27.7270677
  32.6665652  -2.8334711  28.5437760  32.4829678  -3.3809321  28.0141531
  22.2875393   2.5888827  31.6889869  22.7996490   2.8673080  31.0398628
  22.0011736   3.3278121  32.0552682  22.3210257   2.7391181  31.6479747
  36.4718808   1.7262540  25.2493655  36.3852783   1.8817966  26.1028434
  36.0169288   2.3700616  24.8753060  36.3922065   1.8438295  25.3200762
  25.8059119  -5.3184784  31.7490910  25.6142316  -5.3029650  32.5990334
  26.6557715  -5.1221110  31.7257565  25.9034841  -5.2870433  31.8714205
  30.3444624  -0.9526713  23.8719215  30.0979338  -1.0330962  24.7056004
  30.6729747  -1.7373245  23.6781742  30.3565868  -1.0800447  23.9666738
  34.2392673   5.7556647  27.6605996  34.1007032   6.4537693  28.1654739
  33.4592671   5.6005303  27.3042178  34.1035900   5.8356813  27.6832270
  32.5770758   2.0553022  33.9128378  32.5718797   1.1832839  33.9170804
  33.2831752   2.2541191  33.4397834  32.6815762   1.9556896  33.8435413
  26.3041651   1.7830006  33.2842198  26.4485027   2.3631214  32.6485308
  26.6517300   2.1606303  33.9892053  26.3769113   1.9250710  33.2941193
  28.4761569   0.9820174  31.0667330  27.7284883   1.1751189  30.6615608
  28.6303094   0.1565394  30.8291451  28.3883996   0.8885286  30.9712735
  25.3769406   9.9732778  30.1503225  25.5258970   9.4135694  29.4976629
  26.1569409  10.0524780  30.5335744  25.5143500   9.9018343  30.1100174
  35.7346046   5.1134901  18.4222495  35.3552855   4.3272038  18.4151785
  35.0712291   5.6621758  18.2794140  35.5804521   5.0779725  18.4003292
  27.9022707  10.1447421  31.4287716  27.8266378   9.4756231  31.9838504
  27.8312566  10.8465209  31.9428382  27.8803314  10.1492328  31.5864564
  28.7163346  -5.1229275  31.9562733  29.1735960  -4.3905301  32.0835526
  28.7919675  -5.5462810  32.7149989  28.7954316  -5.0772037  32.0863810
  28.5592954   8.6648420  22.2611322  29.3242845   8.3958063  21.9393986
  28.4571044   8.1798430  22.9781384  28.6574449   8.5537984  22.3191149
  26.5945724  -3.1327171  28.8004557  25.8041799  -3.3135711  29.1221893
  26.9906347  -3.9100218  28.7834852  26.5362600  -3.2739710  28.8457106
  31.9789410   4.5015259  26.5264003  31.3034412   4.2700491  27.0277390
  31.9881786   3.8936442  25.9006108  31.8807915   4.3774184  26.5080156
  29.1083554  -0.6566912  33.2828056  29.0442695   0.2043045  33.1548193
  29.2480742  -0.9734919  32.4823608  29.1199024  -0.5766745  33.1456269
  33.9806145   7.3580392  18.7574181  34.0625982   8.1647378  18.4335632
  34.4655887   7.3776351  19.4814955  34.0643303   7.4801054  18.8161080
  27.7902648   2.0365228  27.4244259  27.3664897   2.2369727  26.6883278
  27.6147503   1.1894076  27.5368559  27.7013529   1.9414009  27.3317949
  23.0785093   2.5317279  22.8572232  23.2349712   2.4664082  23.7128224
  23.4185686   3.3065832  22.6450911  23.1518328   2.6366477  22.9526826
  29.6164238   1.9075163  21.7265595  30.1579783   1.4045544  22.1904216
  29.9310797   1.8540357  20.9155080  29.7428635   1.8254583  21.6749407
  33.4881345   6.1177810  38.8392507  34.3016210   5.8462959  38.9997640
  33.3276311   5.8185350  38.0352703  33.5851293   6.0332736  38.7437913
  27.7850687   7.2992514  19.0105623  27.8543508   6.4407053  19.1498623
  28.5639142   7.5164395  18.6824648  27.9103537   7.2045378  18.9822780
  30.7653507  -3.1988533  31.7787895  30.9795476  -3.8377619  31.2251249
  30.1487406  -2.7542709  31.3495757  30.7058836  -3.2278389  31.6338326
  32.1758175   9.7230215  23.2242116  31.7837967   9.4196931  22.5064982
  32.3311247  10.5599305  23.0347070  32.1411765   9.8014052  23.0898613
  32.9292595  -1.5899468  32.7171202  32.1169277  -1.8973577  32.7984375
  33.3882530  -2.0700468  33.2813915  32.8772980  -1.7062975  32.8125797
  32.3397850   6.2880204  23.1648147  31.9812504   6.4594847  23.9412179
  31.8536560   6.7493410  22.6076145  32.2156546   6.3819175  23.1973416
  30.0246102  -0.1839396  37.4999905  30.4945734   0.4402720  37.8867779
  30.0707983  -0.8522421  38.0593119  30.1013978  -0.1904716  37.6399976
  33.5002589   7.1784100  34.1115348  34.1382309   6.6844296  33.7777804
  32.8576681   7.1061501  33.5267575  33.4996815   7.0943109  33.9757703
  35.2259589  -0.9726754  28.6781263  34.7987197  -1.0600405  27.9229363
  34.5885642  -0.8648978  29.2636107  35.0689196  -0.9694094  28.6526705
  33.5556846   7.8703908  30.7520704  34.3449224   7.5192973  30.8722786
  33.7300443   8.6840297  30.4897338  33.6977127   7.9389766  30.7308572
  23.2950156   1.2812634  27.8048493  22.4538163   1.1816508  28.0127387
  23.5040164   2.0508114  28.1562814  23.2014849   1.3804678  27.8875808
  20.7725723  -1.0967829  25.6333244  20.3782421  -1.0224817  24.8583354
  20.2165840  -0.7109883  26.1841606  20.6328535  -1.0286054  25.6000904
  27.1066821  -0.7905967  27.0546091  26.8029958  -1.3449978  27.6556498
  26.4046242  -0.6113757  26.5674125  26.9583031  -0.8461184  27.0715796
  25.1685172   6.4243754  31.7618189  25.0605527   6.4345816  32.6280247
  25.3780953   7.2498534  31.5723142  25.1835283   6.5484829  31.8622280
  23.1858964   3.6756397  29.2240126  22.5946897   4.3165895  29.1943141
  23.9479987   4.0994014  29.1971426  23.2107224   3.8332235  29.2155273
  25.2302936  -4.4974911  34.4580171  24.8388501  -5.1441564  34.8935949
  25.3988799  -3.9063476  35.0774426  25.1973847  -4.5060643  34.6142877
  39.3049385   3.5062166  30.2217404  39.3632509   3.9548815  30.9677381
  38.6715853   3.9160979  29.7847484  39.2200680   3.6335901  30.2669953
  32.9448480   9.1265708  26.6572151  32.7468169   9.6156523  25.9628362
  32.3236191   9.3306950  27.2356284  32.8236044   9.2282246  26.6395374
  29.9934334  -3.5323922  26.8976314  29.5194289  -4.0582160  27.4081625
  30.3652470  -4.0794449  26.3291176  29.9784223  -3.6907925  26.8891461
  36.2571065   1.5278454  28.3083095  36.0169288   0.6884869  28.3125521
  36.7363072   1.6078621  29.0323868  36.2923249   1.4159854  28.4157897
  38.2576252  -1.6920089  26.2612354  38.0186022  -1.7324255  25.4233138
  38.4210153  -0.8448937  26.3878075  38.2466555  -1.5728004  26.1565836
  34.8622282   2.6929860  32.1917399  35.5856481   2.2402387  32.0128419
  34.5972244   2.9734526  31.4089727  34.9303555   2.6680829  32.0496114
  23.7309150  -2.7109966  28.9270278  23.1062221  -2.6991574  28.3196231
  23.3954745  -2.2349791  29.5761518  23.5894642  -2.6391449  28.9326847
  20.4434826   5.3490494  30.3674043  19.9134750   4.6582933  30.4169017
  20.7159919   5.3400679  29.5386751  20.4059548   5.2457626  30.2521458
  31.4754916   5.9316196  19.0911725  32.1989115   6.3974309  18.9476298
  31.0355507   5.9989806  18.3409322  31.5170609   6.0100033  18.9596506
  30.6441071   2.7913739  30.3412414  30.0298065   2.2471789  30.6361049
  31.1608356   2.2777975  29.8618230  30.6296734   2.6350148  30.3136642
  29.8837369   3.8618009  28.0756713  29.4564977   3.2367727  27.6422148
  29.8762313   3.5792931  28.9015720  29.8196510   3.7270789  28.1336540
  22.9999896  -1.1016818  31.1445147  23.1593382  -1.8573494  31.5496869
  22.8192789  -0.5525879  31.7985884  22.9965255  -1.1323005  31.3007853
  28.2123078  -5.2613237  28.2899247  28.2365566  -5.7953125  27.6012027
  28.4634552  -5.7695928  28.9524837  28.2532997  -5.4152333  28.2863891
  15.7230668   2.0218258  27.7242391  15.6174117   1.9765102  26.8594475
  14.9730888   2.3672039  28.0056676  15.5966271   2.0659166  27.6379721
  26.6754013   3.0318321  35.7725286  25.8249644   3.1690036  35.9082931
  26.8382141   2.2982100  36.2172987  26.5737877   2.9432423  35.8580885
  25.9138764  -0.0181909  29.9678890  25.0830694   0.1491909  29.7614138
  25.8590281  -0.3945958  30.7527775  25.7828179  -0.0492177  30.0527418
  37.2957596   1.6556271  30.6947949  37.8875436   2.2953522  30.7266147
  37.7316590   0.9579308  30.9840016  37.4476027   1.6474622  30.7428781
  29.1250986   6.0773644  31.3205843  28.6176077   6.6309490  31.7646473
  28.8277632   6.1381933  30.5024617  29.0055871   6.1679955  31.2654299
  31.7358766   9.9936901  19.2509786  31.0188076   9.8197764  18.7857024
  32.3865504   9.7589474  18.7185272  31.7260617   9.9332694  19.1039004
  34.3206737  -1.1298510  22.9951091  33.6497927  -0.5868808  22.8664157
  35.0146488  -0.6603655  22.7532786  34.3235605  -0.9800239  22.9406619
  28.3693471  11.0098202  28.2262850  28.1459126  10.2517031  28.5946876
  27.8803314  11.0396223  27.5043289  28.2636920  10.9020426  28.1739591
  23.1818550  -2.0435107  23.9624311  22.4630539  -1.6270974  24.2297175
  23.5530912  -1.4780868  23.4115949  23.1310482  -1.8985825  23.9207118
  32.4818131  -1.4107258  29.8526307  32.4616058  -1.5923963  30.7061086
  32.5297331  -0.5395239  29.8285890  32.4852772  -1.3090720  29.9749601
  30.4264460   5.1779934  35.7774783  30.3860315   4.5329611  35.1919939
  31.2387779   5.1216551  36.0900195  30.5407614   5.0738901  35.7371732
  27.0171928  11.2298660  25.6799934  26.6032327  10.5672790  25.2903776
  27.7019302  11.3776519  25.1595628  27.0570300  11.1539318  25.5456431
  30.3837222  10.3888745  26.4323551  29.9853505  10.4991016  25.6644371
  29.7688442  10.5970812  27.0150111  30.2336111  10.4362313  26.4054850
  31.8322941  -3.0457602  22.7299441  31.6036634  -3.0224901  21.8877799
  32.0921017  -3.8700135  22.8494451  31.8369129  -3.1641523  22.6224638
  26.1142169  -1.1923129  32.3324541  25.6021072  -1.8001946  32.6909572
  25.9421665  -0.4766537  32.7998517  26.0131806  -1.1759830  32.4540765
  24.8867703  -4.5081056  24.0253636  25.3625070  -4.1463976  23.3903818
  24.3856303  -3.8524589  24.3053779  24.8833062  -4.3586867  23.9730377
  38.1179065   4.9640712  19.8166641  38.5012671   5.7132068  20.0464738
  37.3223178   5.2106532  19.5578630  38.0572847   5.1110406  19.8124215
  29.9911240  -3.2698885  34.7726796  30.5482670  -3.4985075  34.1405262
  29.6672305  -2.5093219  34.4962009  30.0257650  -3.1915048  34.6383294
  27.7094357  -0.1831231  35.7378804  28.4605684   0.1320445  36.0518358
  27.9016933  -0.3852061  34.9112725  27.8485771  -0.1663850  35.6622199
  32.2820499   0.6239837  26.6338806  32.7774164  -0.0937168  26.5942826
  31.4720275   0.3210634  26.5193293  32.2364392   0.4737483  26.6112532
  27.7279110   4.4737650  18.7835810  26.9190433   4.1504323  18.7369120
  28.2354019   3.7670872  18.7164059  27.6828777   4.3218966  18.7666105
  18.3569388   1.9009843  24.5083175  17.4914907   1.8895533  24.3965946
  18.4568204   1.7140066  25.3554314  18.2443555   1.8715904  24.6172119
  34.3472318   3.3743524  29.3215935  34.7727389   2.8517946  28.7686360
  33.9829238   3.9724362  28.8004558  34.3558920   3.3853751  29.1624944
  23.9826398  11.6707742  28.0813280  24.2972957  12.4844130  28.0891062
  24.3919811  11.2857960  28.7495439  24.0894496  11.7336444  28.1817372
  30.9350917   7.0877788  25.6517092  31.4062095   7.8018051  25.8207077
  31.2711096   6.4876539  26.1876962  31.0546032   7.1049253  25.7549468
  33.0227902   8.6979102  37.8309164  33.1324867   7.9087662  38.1865911
  33.3518798   8.6085038  37.0283502  33.0880308   8.5684955  37.7651555
  31.5724864   6.8795723  32.4144785  31.0245810   6.2553606  32.1464850
  32.0337892   7.0689995  31.6988864  31.5592073   6.8154773  32.2695216
  21.3239418   5.6180850  27.7291889  21.9284275   5.5776684  27.1005709
  21.1166730   6.4652002  27.7595944  21.3828315   5.7368853  27.6408005
  31.1383190   7.8846795  28.9454126  31.9581564   7.7409761  29.2070421
  30.8577268   8.5092994  29.4870564  31.2179933   7.9557147  29.0642065
  16.5590700   4.6015468  27.5990812  16.4614978   3.7911739  27.9080868
  17.3419570   4.5807261  27.2137080  16.6606837   4.4782558  27.5877675
  47.6096840  15.5411647  21.9097002  47.5790845  16.3956284  22.0815272
  48.2078189  15.2406940  22.4683146  47.6933998  15.6228144  22.0171805
  40.8096525  14.6287298  26.6649933  39.9534421  14.7895796  26.7159050
  40.8564179  13.7579362  26.6854994  40.6895637  14.5238100  26.6755999
  40.6462625  24.5875385  17.8572711  40.3113993  25.2652307  17.4216934
  41.1589495  24.1980697  17.2689583  40.6728206  24.6299964  17.7059503
  43.6548346  16.6879342  29.3081584  44.2004306  17.3664428  29.3675554
  43.5965222  16.5466803  28.4483166  43.7264261  16.7671344  29.1893645
  45.4313415  18.1163949  20.1815312  45.3152941  18.8671635  20.6107450
  46.2269301  17.8587902  20.4311399  45.5318004  18.1898796  20.2819404
  29.9687465  20.1988695  24.3202270  29.7337650  19.3656347  24.2134539
  30.1073106  20.4793360  23.5063471  29.9543128  20.1172198  24.1844625
  32.2677553  12.3674425  27.2186578  31.6482584  11.7767072  27.0496593
  32.1661416  12.9585860  26.5850901  32.1615228  12.3678508  27.0991568
  37.3143740  22.1057972  21.4684655  37.6359581  22.6463179  20.8645963
  37.9615837  21.5354743  21.6006944  37.4569796  22.1017147  21.3991690
  39.3645448  14.1073967  21.5519041  40.0625613  14.2862094  22.0440505
  39.6797781  13.5844306  20.9289431  39.5140786  14.0567739  21.5321051
  31.9946686  15.9126707  29.4630147  31.8705383  16.4989152  30.0979966
  32.6464970  15.4186903  29.7642422  32.0720335  15.9265511  29.6016076
  39.5533384  20.4944412  21.5398833  39.9927019  19.8861512  21.9853606
  39.4038047  20.1151785  20.7684298  39.5954849  20.3482883  21.4918000
  37.0205027  19.0888424  28.7417658  37.6654029  18.5960867  28.4228607
  37.2606804  19.2313210  29.5683737  37.1515612  19.0365866  28.8167191
  39.5591118  21.9343330  28.3924551  39.8414361  21.1394735  28.1711307
  40.2877279  22.4123917  28.4129612  39.7080682  21.8877927  28.3627566
  37.5372312   9.4766364  25.6340316  37.2075642   9.9277507  24.9644015
  36.8617314   9.3982527  26.1813322  37.3882748   9.5317499  25.6163539
  43.1542720  18.8471593  18.4929602  43.0694015  19.7032560  18.6379171
  43.6427104  18.5715917  19.1611761  43.2131618  18.9328915  18.6131684
  44.7448720   5.4651886  23.8789927  44.4302161   6.1555365  24.3110349
  44.2275661   5.4096669  23.1775427  44.6213190   5.5586775  23.8386876
  44.0861154  15.4656387  19.9927337  43.5572625  15.6816021  20.6524643
  44.6086173  16.1592526  19.9128306  44.0849607  15.5999524  20.0782936
  49.5409206  21.0402692  25.3660382  48.7106910  21.2513336  25.5293798
  49.4918459  20.2139746  25.0902665  49.4115942  20.9492298  25.3497747
  35.9760761  19.3619604  18.7934805  35.3917977  19.8669636  19.2000669
  35.5730857  19.1361991  18.0531397  35.8300065  19.4027852  18.7439830
  31.5304790  25.0774365  25.5958477  31.0472368  25.8024855  25.5718060
  32.3428108  25.3750495  25.7068634  31.5795538  25.2276719  25.6085756
  35.7428266   7.5378652  21.1163264  36.4974234   7.9056969  20.8780314
  35.5655801   7.9118206  21.8842443  35.8282744   7.6476840  21.1948152
  49.0363165  13.6873093  29.1610803  48.1991586  13.7575280  29.3958397
  49.0051396  13.6897587  28.2885105  48.9081447  13.6983320  29.0670351
  35.4327894  15.8306128  34.8759172  35.6048398  15.7212023  35.7244453
  35.9697251  16.4760534  34.6390364  35.5372898  15.9098130  34.9664268
  34.0985331   9.9448971  17.8141377  33.9160904  10.1620852  16.9882369
  34.9610944  10.0587984  17.8699991  34.1989920   9.9938869  17.6995864
  33.7099763  21.7836893  25.2564365  34.5488662  22.0159826  25.3038126
  33.7411532  20.9141205  25.1871400  33.8381480  21.6893840  25.2529009
  39.7785050   6.9475382  20.8490400  40.5071210   6.7691337  20.4028557
  39.8679943   7.7893461  21.0597579  39.8991712   7.0459260  20.8143918
  43.7593351  17.8828769  24.7522694  44.5150866  18.3160283  24.7911603
  43.8655675  17.2333539  25.3257330  43.8863521  17.8506253  24.8420720
  46.7973522  21.7102046  25.5025097  46.3608754  21.7138789  26.2584069
  46.4636437  22.3907545  25.0704675  46.6836142  21.8114502  25.5505930
  29.7389611  18.4238059  29.7112092  29.4728026  17.6077176  29.8703082
  29.7528175  18.4691215  28.8407607  29.7014333  18.3094964  29.6065574
  46.7171005   8.7515874  27.7454525  47.3596913   8.8213979  28.3316441
  46.9694025   8.0845097  27.2434067  46.8493137   8.6642223  27.7581805
  33.6447358  13.2223144  16.3263850  32.9305535  12.9361323  16.7386282
  34.1291326  13.5619769  16.9670237  33.6106721  13.2304793  16.4819485
  34.4888217  11.9616438  32.3579099  33.7960014  11.4913417  32.6039831
  35.1048544  11.7354742  32.9320806  34.4772747  11.8583569  32.4788252
  49.9317868  18.4282966  24.3944735  50.5934302  17.8673635  24.2940643
  49.2909280  17.9334997  24.7197426  49.9346735  18.2719375  24.4277075
  40.8194676  21.7253098  16.7025658  41.2345824  21.3938121  16.0110154
  39.9886605  21.4922000  16.5745795  40.7582684  21.6424354  16.5816505
  30.1483024  19.2096839  26.9923836  29.9658598  19.1843725  26.1396128
  30.8832693  19.6795776  27.0312745  30.2297088  19.2758201  26.8721754
  46.2182699  19.4448349  24.1356723  46.4538288  19.5893547  23.3083574
  46.3672262  20.2090757  24.5288237  46.2748502  19.5787403  24.0720327
  48.0473155  18.2850015  21.9726327  48.3781372  18.8177655  21.3666422
  48.6206243  18.3388902  22.6288278  48.1806834  18.3719583  21.9804109
  43.2605044  16.1314917  22.6549907  43.3551899  16.8704211  23.1089533
  42.6363888  15.7032393  23.0884472  43.1814075  16.1776238  22.7858055
  41.5157518  19.3101130  33.3040188  42.0896380  18.6728374  33.4588752
  41.4372322  19.3105212  32.4349846  41.5890753  19.2166241  33.1986599
  30.1153935  16.0890339  27.1422902  30.6927437  15.9526790  27.7815148
  29.4167996  15.6326123  27.3968487  30.0974956  16.0012606  27.2745192
  43.5128066  17.9763657  15.8886859  43.4308228  18.0465844  16.7541846
  44.1507786  18.5393401  15.6970600  43.5947903  18.0702628  15.9876809
  36.8721237  17.7424395  25.3561386  36.6140481  16.9096130  25.3292685
  36.9269720  17.9682008  24.5153886  36.8421015  17.6522166  25.2281522
  41.9522287   9.8452846  25.4565478  41.2478614   9.3562031  25.6149397
  42.0007261   9.8575320  24.5853923  41.8552339   9.7742494  25.3504818
  35.8455949  15.2962157  25.8426280  35.2705540  15.4554326  26.4790241
  35.4691625  14.6597567  25.3794731  35.7058761  15.2259970  25.8680839
  39.5129238  13.7685507  30.7018659  39.1243670  13.3439724  30.0470850
  38.8483936  14.0167656  31.2095685  39.3576165  13.7424228  30.6806527
  49.1552507  13.5260511  23.4766489  48.8989072  12.7140453  23.2864372
  49.9981821  13.5338079  23.2496676  49.2418532  13.4072509  23.4151306
  25.5912768  14.9402232  23.8570721  25.6773020  14.5634101  24.6384251
  26.2188565  14.5662678  23.3790679  25.6969319  14.8287714  23.9016198
  43.3355599   7.4660135  28.2142643  43.7166111   6.7838307  28.6010517
  42.5318884   7.1769738  28.0318307  43.2732061   7.3227184  28.2446699
  40.6168176  17.9984111  18.8995466  41.4308815  18.2899004  18.7878237
  40.5527317  17.3443974  18.3253759  40.7270915  17.9449306  18.7984303
  46.8377666  20.6810107  33.3125041  46.6016304  19.8498172  33.1937102
  47.4820895  20.6295715  33.8979886  46.8972337  20.5507795  33.3810935
  36.4876084  21.4705629  24.0267778  37.1250031  21.2317376  24.5719571
  36.9131156  21.6742788  23.2920938  36.6452250  21.4656639  23.9984935
  31.1788727  23.7093965  27.9102082  31.2192872  23.9808816  27.0821861
  31.7383251  24.2335873  28.3259870  31.2672073  23.8269720  27.8493970
  37.1278899  16.6907919  18.3642667  37.5124052  16.4715625  19.1159212
  36.8790520  17.5170864  18.4943744  37.1480972  16.7806065  18.4943744
  37.2947440   9.9714334  38.0805251  36.9800881  10.7413896  37.8174814
  36.9737372   9.4084590  37.4957478  37.2006359  10.0024602  37.9546601
  47.8614087  20.4654556  29.3753336  47.5559904  21.1982613  29.7366652
  47.1420302  20.0592486  29.0946122  47.7101429  20.5136289  29.3866473
  38.8697556  21.9478051  25.7061564  38.9436564  21.7853223  26.5603414
  39.6867063  22.1368241  25.4622046  39.0013915  21.9514794  25.7959590
  53.5615879  17.1047557  28.7021680  53.4940379  17.1243516  27.8324267
  53.5471541  17.9477884  28.9277351  53.5494635  17.2321292  28.6074157
  32.6303313  22.2935914  22.7356008  31.8041431  22.5397651  22.6090286
  32.6915304  22.2147995  23.6018066  32.5177480  22.3180863  22.8444952
  34.8479337   8.3604855  23.6951448  33.9801762   8.4327455  23.7609057
  35.1354541   9.1626934  23.8839423  34.7619085   8.4899002  23.7326214
  43.9712225   8.5082715  32.0262770  44.7165817   8.3192525  31.6126195
  43.5549530   9.0340953  31.4676626  44.0197200   8.5584860  31.8827343
  37.4102142  24.9112794  20.4375038  37.7000440  24.5201776  19.7134264
  38.1405623  25.0929499  20.8780313  37.5609026  24.8806608  20.3957845
  51.3474496  15.8791943  26.9768275  51.8982418  15.2460012  27.2165367
  51.3318612  16.4107336  27.6683779  51.4259693  15.8640891  27.1147133
  37.9996887  19.7130540  31.5228168  37.5008581  20.4246308  31.6013056
  38.8097111  20.0331207  31.4846330  38.0452994  19.8657389  31.5284737
  34.2625005  18.9753493  25.7690889  33.9738253  18.3490965  26.3036616
  35.1308353  18.9173781  25.8355569  34.3485257  18.8741038  25.8581843
  45.0502902  14.1188277  26.0872871  44.7067668  13.3978612  26.4380120
  45.1495945  13.9102128  25.2451229  45.0144945  13.9812480  26.0144551
  34.4657278  20.6148744  21.6933254  35.2203246  20.9961783  21.9068716
  33.8727891  21.0659888  22.1479950  34.4893992  20.7377572  21.7916132
  45.5115932  20.5813981  21.6296859  46.0773964  21.2407191  21.5455402
  44.8643835  20.9263679  22.1013261  45.4994688  20.7295922  21.6869615
  36.9263945  12.5711585  36.8190466  36.1163721  12.8769364  36.7080309
  37.4038632  13.2917167  36.9343050  36.8767424  12.7226186  36.8197537
  35.7855505  21.7857306  27.0673369  35.2636258  21.9257597  27.7525234
  36.1729525  21.0267970  27.2575487  35.7659206  21.6942830  27.1974446
  32.7746689  11.8363115  21.1368324  32.4871484  11.4664385  20.4000271
  33.4617157  12.3057970  20.8752029  32.8335586  11.8510084  20.9883400
  41.9822510  23.5252765  21.0533938  41.7409186  22.7920626  20.6461003
  42.1623843  24.0739622  20.4000271  41.9730134  23.4975156  20.8964161
  37.2121830  18.8161325  22.4654860  37.0164613  19.4236059  21.8715163
  37.4356176  18.1229269  21.9846534  37.2156471  18.8038850  22.3070941
  35.6100360  15.7016063  22.5835729  36.3323012  15.8657221  22.1239535
  35.1308353  16.4225728  22.4775069  35.6464091  15.8314292  22.5001343
  43.5693868  12.0379862  27.9632414  42.7304969  12.0641140  27.7270677
  43.6398235  12.6850597  28.5437760  43.4562261  12.1375987  28.0141531
  42.0163146   8.9365239  22.6960030  42.7189499   8.7372987  22.2179988
  41.7507335   8.1641181  23.0028873  42.0809778   8.7928205  22.6705471
  47.4451392  17.2447848  25.2493655  47.3585366  17.4003274  26.1028434
  46.9901872  17.8885924  24.8753060  47.3654648  17.3623603  25.3200762
  30.3474883  12.6144327  21.9853605  30.4491020  13.4170488  22.3134581
  31.1430770  12.4131663  21.6876686  30.4802789  12.7030226  21.9888960
  36.7791702  10.2000524  31.7490910  36.5874899  10.2155658  32.5990334
  37.6290298  10.3964198  31.7257565  36.8767424  10.2314875  31.8714205
  31.1638615  12.7291505  29.7274727  31.0224107  11.8775446  29.8519235
  31.4479179  12.7720166  28.9036933  31.1846461  12.6091255  29.6242351
  41.3177208  14.5658595  23.8719215  41.0711922  14.4854346  24.7056004
  41.6462331  13.7812063  23.6781742  41.3298451  14.4384861  23.9666738
  45.2125257  21.2741955  27.6605996  45.0739616  21.9723001  28.1654739
  44.4325254  21.1190611  27.3042178  45.0768483  21.3542121  27.6832270
  43.5503342  17.5738330  33.9128378  43.5451380  16.7018147  33.9170804
  44.2564336  17.7726499  33.4397834  43.6548346  17.4742204  33.8435413
  37.2774235  17.3015314  33.2842198  37.4217611  17.8816522  32.6485308
  37.6249884  17.6791611  33.9892053  37.3501696  17.4436018  33.2941193
  39.4494152  16.5005482  31.0667330  38.7017466  16.6936497  30.6615608
  39.6035678  15.6750702  30.8291451  39.3616580  16.4070594  30.9712735
  46.7078629  20.6320209  18.4222495  46.3285438  19.8457346  18.4151785
  46.0444875  21.1807066  18.2794140  46.5537104  20.5965032  18.4003292
  39.6895929  10.3956033  31.9562733  40.1468544  11.1280007  32.0835526
  39.7652258   9.9722498  32.7149989  39.7686899  10.4413271  32.0863810
  31.9328921  10.6421853  33.0452177  31.3971110  10.0302211  33.3612944
  31.9946685  11.2169989  33.6985844  31.8624553  10.6368781  33.1887604
  44.1623255   3.5745908  25.8256576  44.2806823   4.0322372  25.0923879
  43.9885431   2.7691169  25.5392794  44.1542426   3.5239680  25.6757510
  39.5325538  24.1833728  22.2611322  40.2975429  23.9143371  21.9393986
  39.4303628  23.6983738  22.9781384  39.6307033  24.0723292  22.3191149
  37.5678307  12.3858137  28.8004557  36.7774382  12.2049597  29.1221893
  37.9638930  11.6085090  28.7834852  37.5095184  12.2445598  28.8457106
  42.0544198  21.2145911  14.2411271  42.8217183  21.2746036  13.8317123
  41.6075507  20.6426353  13.7567590  42.1017625  21.1382487  14.1088981
  42.9521994  20.0200567  26.5264003  42.2766995  19.7885799  27.0277390
  42.9614370  19.4121750  25.9006108  42.8540498  19.8959492  26.5080156
  40.0816138  14.8618396  33.2828056  40.0175279  15.7228353  33.1548193
  40.2213325  14.5450389  32.4823608  40.0931608  14.9418563  33.1456269
  44.9538728  22.8765700  18.7574181  45.0358566  23.6832686  18.4335632
  45.4388470  22.8961659  19.4814955  45.0375886  22.9986362  18.8161080
  38.7635232  17.5550535  27.4244259  38.3397481  17.7555035  26.6883278
  38.5880087  16.7079383  27.5368559  38.6746112  17.4599317  27.3317949
  34.0517676  18.0502587  22.8572232  34.2082296  17.9849390  23.7128224
  34.3918270  18.8251139  22.6450911  34.1250911  18.1551785  22.9526826
  40.5896821  17.4260470  21.7265595  41.1312367  16.9230852  22.1904216
  40.9043380  17.3725665  20.9155080  40.7161218  17.3439891  21.6749407
  38.7583271  22.8177822  19.0105623  38.8276091  21.9592360  19.1498623
  39.5371726  23.0349703  18.6824648  38.8836121  22.7230686  18.9822780
  41.7386090  12.3196775  31.7787895  41.9528060  11.6807689  31.2251249
  41.1219990  12.7642599  31.3495757  41.6791420  12.2906919  31.6338326
  43.1490758  25.2415523  23.2242116  42.7570550  24.9382238  22.5064982
  43.3043831  26.0784613  23.0347070  43.1144348  25.3199360  23.0898613
  30.6251938  15.2337537  23.1732999  31.0050903  15.6522082  22.5093266
  30.0507303  15.8150993  23.4801842  30.5963263  15.3815396  23.1209740
  43.9025178  13.9285840  32.7171202  43.0901860  13.6211731  32.7984375
  44.3615113  13.4484840  33.2813915  43.8505563  13.8122333  32.8125797
  43.3130433  21.8065512  23.1648147  42.9545088  21.9780155  23.9412179
  42.8269144  22.2678718  22.6076145  43.1889130  21.9004483  23.1973416
  41.1300819   5.4296711  26.7675238  40.2594377   5.4035432  26.7208548
  41.3841160   5.2573903  25.9501084  41.0394379   5.4006854  26.6395375
  38.1018799  17.4864678  15.7048381  38.3911323  18.2629560  15.9791956
  38.1890597  16.9753409  16.4062881  38.1573055  17.5256596  15.8490879
  40.9978686  15.3345912  37.4999905  41.4678317  15.9588028  37.8867779
  41.0440566  14.6662887  38.0593119  41.0746562  15.3280592  37.6399976
  38.1549960   7.4402939  28.2248709  37.6388448   6.7483131  28.3500288
  37.5943889   8.1073716  28.1711307  37.9956473   7.4366197  28.2354775
  40.2242193   7.9795899  30.0541561  39.8373946   8.0044931  30.8355091
  39.7375130   7.4137578  29.6016078  40.0954702   7.8991650  30.1029465
  46.1992173  14.5458554  28.6781263  45.7719781  14.4584903  27.9229363
  45.5618226  14.6536330  29.2636107  46.0421780  14.5491214  28.6526705
  39.8899335   4.8662885  32.3451821  40.5192453   5.4023185  32.0672891
  40.0585198   4.7740244  33.1965387  40.0077129   4.9324247  32.4300349
  39.6913250   9.6534079  34.6178233  40.5186679   9.3819228  34.6736847
  39.7121096  10.4494921  34.9742051  39.8166100   9.7313834  34.6793416
  44.5289429  23.3889216  30.7520704  45.3181807  23.0378281  30.8722786
  44.7033027  24.2025605  30.4897338  44.6709711  23.4575074  30.7308572
  34.2682740  16.7997942  27.8048493  33.4270746  16.7001816  28.0127387
  34.4772747  17.5693422  28.1562814  34.1747432  16.8989985  27.8875808
  31.7458306  14.4217479  25.6333244  31.3515004  14.4960491  24.8583354
  31.1898423  14.8075425  26.1841606  31.6061119  14.4899254  25.6000904
  43.3823253   7.3998773  25.3137123  43.5872847   7.3321081  26.1594120
  43.0549677   8.2057594  25.2458300  43.3638501   7.5084714  25.4296778
  37.1365501  12.0379861  21.6190793  37.4125236  11.3198774  21.2068360
  37.7364171  12.6364781  21.4111899  37.2658766  12.0200232  21.5271554
  46.6356941   7.9530537  24.7939888  46.0231255   8.4400939  25.1793620
  46.7321116   7.2774028  25.3377540  46.5594839   7.9248846  24.9318747
  40.6376022   9.7093378  19.8937388  41.0919769   9.8803939  20.6185232
  41.1116068   9.0961489  19.4935163  40.7744342   9.6444264  19.9411149
  34.1591547  19.1941704  29.2240126  33.5679481  19.8351203  29.1943141
  34.9212571  19.6179322  29.1971426  34.1839808  19.3517543  29.2155273
  34.5552170  10.3543702  29.8908144  35.0153652  10.4282632  30.6283268
  34.6008277  11.1524956  29.5407965  34.6302726  10.4837849  29.9480900
  36.2035520  11.0210397  34.4580171  35.8121085  10.3743744  34.8935949
  36.3721383  11.6121832  35.0774426  36.1706430  11.0124665  34.6142877
  50.2781969  19.0247474  30.2217404  50.3365093  19.4734123  30.9677381
  49.6448437  19.4346287  29.7847484  50.1933264  19.1521209  30.2669953
  43.9181064  24.6451016  26.6572151  43.7200752  25.1341830  25.9628362
  43.2968775  24.8492257  27.2356284  43.7968628  24.7467554  26.6395374
  37.9789042  16.4135913  20.9982395  38.7231087  16.8010189  21.2365345
  38.1249738  15.5693338  21.1622883  38.1099627  16.3466386  21.0576365
  39.8968617   8.2086172  26.0314256  39.0504663   8.3808980  25.9055606
  39.8939750   7.4035515  26.3680085  39.7715767   8.1147201  26.0625383
  40.9666918  11.9861386  26.8976314  40.4926872  11.4603148  27.4081625
  41.3385054  11.4390859  26.3291176  40.9516807  11.8277383  26.8891461
  47.2303648  17.0463762  28.3083095  46.9901871  16.2070177  28.3125521
  47.7095656  17.1263929  29.0323868  47.2655832  16.9345162  28.4157897
  42.8950418  12.8797941  19.9602068  42.3673436  12.9626685  19.2707777
  43.3546126  13.6215812  19.9566713  42.8852268  13.0018603  19.8576763
  49.2308835  13.8265219  26.2612354  48.9918605  13.7861053  25.4233138
  49.3942737  14.6736371  26.3878075  49.2199139  13.9457304  26.1565836
  45.8354866  18.2115168  32.1917399  46.5589064  17.7587695  32.0128419
  45.5704828  18.4919834  31.4089727  45.9036139  18.1866137  32.0496114
  34.7041734  12.8075342  28.9270278  34.0794804  12.8193734  28.3196231
  34.3687329  13.2835517  29.5761518  34.5627226  12.8793859  28.9326847
  34.8883483  11.1500460  14.9842963  34.5396287  11.8020186  15.4474513
  34.4079928  11.1357573  14.2566834  34.7653727  11.2443514  14.9454054
  42.4487500  21.4501504  19.0911725  43.1721699  21.9159617  18.9476298
  42.0088091  21.5175114  18.3409322  42.4903192  21.5285341  18.9596506
  41.6173655  18.3099047  30.3412414  41.0030648  17.7657097  30.6361049
  42.1340940  17.7963283  29.8618230  41.6029317  18.1535456  30.3136642
  40.8569952  19.3803317  28.0756713  40.4297560  18.7553035  27.6422148
  40.8494897  19.0978238  28.9015720  40.7929093  19.2456097  28.1336540
  33.9732479  14.4168490  31.1445147  34.1325966  13.6611814  31.5496869
  33.7925373  14.9659429  31.7985884  33.9697838  14.3862303  31.3007853
  41.9152782   6.5829725  31.6995936  41.4193344   6.7793399  31.0087503
  42.6721844   6.9822393  31.5284738  41.9539607   6.6707459  31.5716073
  39.1855662  10.2572071  28.2899247  39.2098149   9.7232183  27.6012027
  39.4367136   9.7489380  28.9524837  39.2265581  10.1032975  28.2863891
  26.6963252  17.5403566  27.7242391  26.5906701  17.4950410  26.8594475
  25.9463472  17.8857347  28.0056676  26.5698855  17.5844474  27.6379721
  35.4656984   8.9842889  27.6704991  35.5055356   9.4852096  28.3839698
  34.6406649   9.0753283  27.4010914  35.3496510   9.0724706  27.7355529
  37.6486597  18.5503629  35.7725286  36.7982228  18.6875344  35.9082931
  37.8114725  17.8167408  36.2172987  37.5470461  18.4617731  35.8580885
  36.8871348  15.5003399  29.9678890  36.0563277  15.6677217  29.7614138
  36.8322865  15.1239350  30.7527775  36.7560762  15.4693130  30.0527418
  34.6955131   8.9912292  35.6035301  35.3207834   8.4474425  35.8764733
  34.2405611   8.5107210  35.0343091  34.7203391   8.8401773  35.5596895
  35.2607391  13.7758991  20.4969008  35.4010352  14.2731455  21.1997649
  35.7589924  13.0745285  20.6383221  35.3548472  13.7460969  20.6220587
  35.2907614  14.6426102  17.8261585  35.9252693  15.2386527  17.7611046
  35.3733225  14.3429559  18.6407455  35.3964165  14.6867010  17.9364671
  48.2690180  17.1741579  30.6947949  48.8608020  17.8138830  30.7266147
  48.7049174  16.4764616  30.9840016  48.4208611  17.1659929  30.7428781
  36.8686597  10.5740077  17.8007027  37.1902438  10.0943160  17.1466289
  37.1313540  11.3839723  17.6097838  36.9552622  10.6229975  17.6762519
  42.2645752   9.9612271  30.1630506  42.6900823   9.5084798  29.5514032
  41.6502745   9.4072342  30.4395293  42.2374397   9.8126247  30.1135531
  31.7960602  16.8393942  21.0951131  32.3052831  17.4358450  21.4762436
  32.2694874  16.5719916  20.4127550  31.9403977  16.8879758  21.0505653
  42.7091350  25.5122209  19.2509786  41.9920659  25.3383071  18.7857024
  43.3598087  25.2774781  18.7185272  42.6993200  25.4518002  19.1039004
  40.7039974   6.4327371  23.5721083  40.0608292   6.2825017  24.1406221
  40.3639381   6.1869716  22.8070187  40.5585052   6.3739493  23.5424098
  45.2939321  14.3886798  22.9951091  44.6230511  14.9316500  22.8664157
  45.9879071  14.8581653  22.7532786  45.2968188  14.5385069  22.9406619
  39.3426055  26.5283510  28.2262850  39.1191709  25.7702339  28.5946876
  38.8535898  26.5581531  27.5043289  39.2369504  26.4205734  28.1739591
  45.4567448  10.8442681  25.9041464  45.8095058  10.4172404  26.5787263
  44.5982250  10.7593525  26.0342541  45.3816893  10.7687422  26.0236475
  34.1551133  13.4750201  23.9624311  33.4363122  13.8914334  24.2297175
  34.5263496  14.0404440  23.4115949  34.1043065  13.6199482  23.9207118
  43.4550714  14.1078050  29.8526307  43.4348642  13.9261345  30.7061086
  43.5029915  14.9790068  29.8285890  43.4585355  14.2094588  29.9749601
  41.3569806  25.9074053  26.4323551  40.9586089  26.0176323  25.6644371
  40.7421025  26.1156119  27.0150111  41.2068695  25.9547621  26.4054850
  39.9297708  12.5148201  19.2997690  39.3362547  12.8365197  18.7482258
  39.9672985  11.6689296  19.0918797  39.8472097  12.4372529  19.1880462
  46.8891508   5.9661093  26.8325777  46.3822373   5.2590233  26.7646954
  47.6858942   5.6354282  26.9626854  46.9318748   5.8134245  26.8424772
  42.8055524  12.4727705  22.7299441  42.5769217  12.4960407  21.8877799
  43.0653601  11.6485172  22.8494451  42.8101712  12.3543785  22.6224638
  37.0874753  14.3262178  32.3324541  36.5753656  13.7183361  32.6909572
  36.9154249  15.0418771  32.7998517  36.9864390  14.3425478  32.4540765
  31.9340467  12.7699754  34.9826903  31.7643058  13.4301129  34.4375109
  31.4906417  12.9806315  35.7039392  31.8439801  12.8985736  35.0088532
  35.8600287  11.0104252  24.0253636  36.3357653  11.3721332  23.3903818
  35.3588886  11.6660719  24.3053779  35.8565646  11.1598441  23.9730377
  49.0911648  20.4826020  19.8166641  49.4745254  21.2317376  20.0464738
  48.2955762  20.7291840  19.5578630  49.0305431  20.6295714  19.8124215
  40.9643823  12.2486423  34.7726796  41.5215253  12.0200233  34.1405262
  40.6404888  13.0092089  34.4962009  40.9990233  12.3270260  34.6383294
  38.6826940  15.3354076  35.7378804  39.4338267  15.6505753  36.0518358
  38.8749517  15.1333247  34.9112725  38.8218355  15.3521458  35.6622199
  37.9026940  13.1545452  17.3927020  38.2825905  13.1725081  16.6078135
  37.1619536  13.5999440  17.2717868  37.8495778  13.2227226  17.2590589
  45.5312231  11.4627643  22.9802599  45.5306457  11.3076299  23.8386875
  45.3268411  12.3090630  22.9243985  45.5012008  11.5648264  23.0990538
  27.5929501  14.8867427  27.3961416  27.4151263  14.4344036  28.1216331
  27.3048524  15.6893589  27.5799893  27.5242455  14.9389985  27.5304918
  43.2553083  16.1425145  26.6338806  43.7506748  15.4248140  26.5942826
  42.4452858  15.8395942  26.5193293  43.2096976  15.9922791  26.6112532
  38.7011694  19.9922958  18.7835810  37.8923017  19.6689631  18.7369120
  39.2086603  19.2856180  18.7164059  38.6561361  19.8404274  18.7666105
  29.3301971  17.4195151  24.5083175  28.4647491  17.4080841  24.3965946
  29.4300787  17.2325374  25.3554314  29.2176138  17.3901212  24.6172119
  41.9083501  22.6063096  25.6517092  42.3794679  23.3203359  25.8207077
  42.2443679  22.0061846  26.1876962  42.0278616  22.6234561  25.7549468
  38.8252996   7.3790567  32.6075187  38.9580901   6.5821560  32.9356162
  39.2098149   7.9056970  33.1873463  38.9009325   7.3390484  32.7418690
  41.8985351   4.3020893  29.2056280  41.0931315   4.1918623  29.5224118
  41.7692086   4.4033349  28.3486146  41.7605484   4.3004563  29.1264321
  45.3551312  10.4666385  29.7995977  44.7714300  10.9675591  29.3873544
  45.6755606   9.9595941  29.1660300  45.3164487  10.4658220  29.6454484
  37.8946111   9.3806980  20.0754652  38.7161805   9.5505293  19.8336347
  37.4315762   9.5354241  19.3520949  37.9477273   9.4288713  19.9326296
  36.4841443   7.3749742  30.8553081  37.0285856   7.0340869  31.4457422
  36.5378378   8.2335204  30.9974365  36.5730562   7.4505001  30.9634954
  32.2972001  21.1366158  27.7291889  32.9016859  21.0961992  27.1005709
  32.0899314  21.9837310  27.7595944  32.3560899  21.2554161  27.6408005
  42.1115773  23.4032103  28.9454126  42.9314147  23.2595069  29.2070421
  41.8309851  24.0278302  29.4870564  42.1912517  23.4742455  29.0642065
  27.5323284  20.1200776  27.5990812  27.4347562  19.3097047  27.9080868
  28.3152153  20.0992569  27.2137080  27.6339420  19.9967866  27.5877675
  58.5829424  31.0596955  21.9097002  58.5523428  31.9141592  22.0815272
  59.1810773  30.7592247  22.4683146  58.6666582  31.1413451  22.0171805
  51.7829109  30.1472606  26.6649933  50.9267004  30.3081104  26.7159050
  51.8296762  29.2764670  26.6854994  51.6628220  30.0423408  26.6755999
  51.6195208  40.1060693  17.8572711  51.2846577  40.7837615  17.4216934
  52.1322079  39.7166005  17.2689583  51.6460789  40.1485271  17.7059503
  54.6280930  32.2064650  29.3081584  55.1736890  32.8849736  29.3675554
  54.5697806  32.0652111  28.4483166  54.6996844  32.2856651  29.1893645
  56.4045998  33.6349257  20.1815312  56.2885524  34.3856943  20.6107450
  57.2001885  33.3773210  20.4311399  56.5050588  33.7084104  20.2819404
  40.9420049  35.7174002  24.3202270  40.7070233  34.8841655  24.2134539
  41.0805690  35.9978668  23.5063471  40.9275711  35.6357506  24.1844625
  43.2410136  27.8859733  27.2186578  42.6215168  27.2952380  27.0496593
  43.1394000  28.4771168  26.5850901  43.1347812  27.8863816  27.0991568
  48.2876324  37.6243280  21.4684655  48.6092165  38.1648487  20.8645963
  48.9348420  37.0540051  21.6006944  48.4302379  37.6202455  21.3991690
  50.3378032  29.6259275  21.5519041  51.0358197  29.8047402  22.0440505
  50.6530364  29.1029614  20.9289431  50.4873369  29.5753047  21.5321051
  50.5265967  36.0129720  21.5398833  50.9659603  35.4046820  21.9853606
  50.3770630  35.6337093  20.7684298  50.5687433  35.8668191  21.4918000
  48.5104896  24.9951672  25.6340316  48.1808226  25.4462815  24.9644015
  47.8349897  24.9167835  26.1813322  48.3615332  25.0502807  25.6163539
  54.1275304  34.3656901  18.4929602  54.0426599  35.2217868  18.6379171
  54.6159687  34.0901225  19.1611761  54.1864201  34.4514223  18.6131684
  55.7181303  20.9837194  23.8789927  55.4034744  21.6740673  24.3110349
  55.2008245  20.9281977  23.1775427  55.5945774  21.0772083  23.8386876
  55.0593737  30.9841695  19.9927337  54.5305209  31.2001329  20.6524643
  55.5818757  31.6777834  19.9128306  55.0582190  31.1184832  20.0782936
  60.5141790  36.5588000  25.3660382  59.6839493  36.7698643  25.5293798
  60.4651042  35.7325054  25.0902665  60.3848525  36.4677606  25.3497747
  46.9493345  34.8804912  18.7934805  46.3650560  35.3854944  19.2000669
  46.5463440  34.6547299  18.0531397  46.8032649  34.9213160  18.7439830
  51.4070559  31.1270564  17.2703726  51.6466563  31.3348548  16.4579069
  51.7286400  30.3228073  17.3792670  51.4907717  31.0384665  17.1664279
  46.7160850  23.0563960  21.1163264  47.4706818  23.4242277  20.8780314
  46.5388384  23.4303514  21.8842443  46.8015328  23.1662148  21.1948152
  60.0095748  29.2058400  29.1610803  59.1724169  29.2760588  29.3958397
  59.9783979  29.2082895  28.2885105  59.8814031  29.2168627  29.0670351
  45.0717914  25.4634279  17.8141377  44.8893487  25.6806160  16.9882369
  45.9343527  25.5773292  17.8699991  45.1722504  25.5124177  17.6995864
  50.7517633  22.4660690  20.8490400  51.4803794  22.2876645  20.4028557
  50.8412526  23.3078769  21.0597579  50.8724296  22.5644568  20.8143918
  54.7325934  33.4014077  24.7522694  55.4883449  33.8345591  24.7911603
  54.8388259  32.7518847  25.3257330  54.8596105  33.3691561  24.8420720
  57.7706105  37.2287354  25.5025097  57.3341337  37.2324097  26.2584069
  57.4369021  37.9092853  25.0704675  57.6568725  37.3299810  25.5505930
  57.6903588  24.2701182  27.7454525  58.3329497  24.3399287  28.3316441
  57.9426609  23.6030405  27.2434067  57.8225720  24.1827531  27.7581805
  44.6179941  28.7408452  16.3263850  43.9038118  28.4546631  16.7386282
  45.1023910  29.0805077  16.9670237  44.5839305  28.7490101  16.4819485
  60.9050451  33.9468274  24.3944735  61.5666886  33.3858943  24.2940643
  60.2641863  33.4520305  24.7197426  60.9079319  33.7904683  24.4277075
  51.7927259  37.2438406  16.7025658  52.2078408  36.9123429  16.0110154
  50.9619189  37.0107308  16.5745795  51.7315268  37.1609661  16.5816505
  57.1915282  34.9633657  24.1356723  57.4270871  35.1078855  23.3083574
  57.3404846  35.7276065  24.5288237  57.2481085  35.0972711  24.0720327
  59.0205739  33.8035322  21.9726327  59.3513956  34.3362963  21.3666422
  59.5938827  33.8574210  22.6288278  59.1539418  33.8904891  21.9804109
  54.2337628  31.6500225  22.6549907  54.3284482  32.3889519  23.1089533
  53.6096472  31.2217701  23.0884472  54.1546658  31.6961546  22.7858055
  54.4860649  33.4948965  15.8886859  54.4040812  33.5651152  16.7541846
  55.1240370  34.0578709  15.6970600  54.5680487  33.5887936  15.9876809
  52.9254871  25.3638154  25.4565478  52.2211197  24.8747339  25.6149397
  52.9739845  25.3760628  24.5853923  52.8284922  25.2927802  25.3504818
  46.8188533  30.8147465  25.8426280  46.2438124  30.9739634  26.4790241
  46.4424209  30.1782874  25.3794731  46.6791345  30.7445278  25.8680839
  60.1285090  29.0445819  23.4766489  59.8721655  28.2325761  23.2864372
  60.9714404  29.0523386  23.2496676  60.2151116  28.9257817  23.4151306
  54.3088183  22.9845443  28.2142643  54.6898695  22.3023615  28.6010517
  53.5051467  22.6955046  28.0318307  54.2464645  22.8412492  28.2446699
  51.5900760  33.5169419  18.8995466  52.4041398  33.8084312  18.7878237
  51.5259901  32.8629282  18.3253759  51.7003499  33.4634614  18.7984303
  47.4608668  36.9890937  24.0267778  48.0982615  36.7502684  24.5719571
  47.8863739  37.1928096  23.2920938  47.6184834  36.9841947  23.9984935
  48.1011483  32.2093226  18.3642667  48.4856636  31.9900933  19.1159212
  47.8523103  33.0356172  18.4943744  48.1213555  32.2991373  18.4943744
  58.8346670  35.9839864  29.3753336  58.5292487  36.7167921  29.7366652
  58.1152886  35.5777794  29.0946122  58.6834013  36.0321597  29.3866473
  64.5348462  32.6232865  28.7021680  64.4672963  32.6428824  27.8324267
  64.5204125  33.4663192  28.9277351  64.5227219  32.7506599  28.6074157
  45.8211920  23.8790163  23.6951448  44.9534346  23.9512763  23.7609057
  46.1087125  24.6812242  23.8839423  45.7351668  24.0084310  23.7326214
  54.9444809  24.0268023  32.0262770  55.6898401  23.8377833  31.6126195
  54.5282114  24.5526260  31.4676626  54.9929783  24.0770168  31.8827343
  48.3834725  40.4298102  20.4375038  48.6733024  40.0387084  19.7134264
  49.1138206  40.6114807  20.8780313  48.5341610  40.3991916  20.3957845
  62.3207080  31.3977251  26.9768275  62.8715001  30.7645320  27.2165367
  62.3051195  31.9292644  27.6683779  62.3992276  31.3826199  27.1147133
  56.0235486  29.6373585  26.0872871  55.6800252  28.9163920  26.4380120
  56.1228529  29.4287436  25.2451229  55.9877529  29.4997788  26.0144551
  48.4908597  43.7794875  22.2865880  49.1432655  43.2471317  22.5156906
  47.7934205  43.4263527  22.6733754  48.4839315  43.6484398  22.3778047
  45.4389862  36.1334052  21.6933254  46.1935830  36.5147091  21.9068716
  44.8460474  36.5845196  22.1479950  45.4626575  36.2562880  21.7916132
  56.4848515  36.0999289  21.6296859  57.0506548  36.7592499  21.5455402
  55.8376419  36.4448987  22.1013261  56.4727272  36.2481230  21.6869615
  43.7479272  27.3548422  21.1368324  43.4604068  26.9849693  20.4000271
  44.4349741  27.8243278  20.8752029  43.8068170  27.3695392  20.9883400
  52.9555093  39.0438073  21.0533938  52.7141769  38.3105934  20.6461003
  53.1356426  39.5924930  20.4000271  52.9462717  39.0160464  20.8964161
  48.1854414  34.3346633  22.4654860  47.9897196  34.9421367  21.8715163
  48.4088759  33.6414577  21.9846534  48.1889055  34.3224158  22.3070941
  46.5832944  31.2201371  22.5835729  47.3055596  31.3842529  22.1239535
  46.1040937  31.9411035  22.4775069  46.6196675  31.3499600  22.5001343
  54.5426451  27.5565169  27.9632414  53.7037552  27.5826448  27.7270677
  54.6130819  28.2035905  28.5437760  54.4294845  27.6561295  28.0141531
  52.9895730  24.4550546  22.6960030  53.6922083  24.2558295  22.2179988
  52.7239918  23.6826489  23.0028873  53.0542362  24.3113512  22.6705471
  58.4183975  32.7633156  25.2493655  58.3317950  32.9188582  26.1028434
  57.9634455  33.4071232  24.8753060  58.3387232  32.8808911  25.3200762
  41.3207467  28.1329635  21.9853605  41.4223603  28.9355796  22.3134581
  42.1163354  27.9316971  21.6876686  41.4535373  28.2215534  21.9888960
  52.2909791  30.0843903  23.8719215  52.0444506  30.0039654  24.7056004
  52.6194914  29.2997371  23.6781742  52.3031035  29.9570169  23.9666738
  56.1857840  36.7927263  27.6605996  56.0472199  37.4908308  28.1654739
  55.4057838  36.6375919  27.3042178  56.0501067  36.8727429  27.6832270
  50.4226736  32.0190790  31.0667330  49.6750050  32.2121805  30.6615608
  50.5768261  31.1936010  30.8291451  50.3349164  31.9255902  30.9712735
  57.6811213  36.1505516  18.4222495  57.3018022  35.3642654  18.4151785
  57.0177458  36.6992373  18.2794140  57.5269688  36.1150340  18.4003292
  55.1355839  19.0931216  25.8256576  55.2539407  19.5507679  25.0923879
  54.9618015  18.2876477  25.5392794  55.1275010  19.0424988  25.6757510
  50.5058121  39.7019035  22.2611322  51.2708012  39.4328679  21.9393986
  50.4036211  39.2169046  22.9781384  50.6039617  39.5908600  22.3191149
  48.5410891  27.9043445  28.8004557  47.7506966  27.7234905  29.1221893
  48.9371514  27.1270397  28.7834852  48.4827767  27.7630906  28.8457106
  53.0276782  36.7331219  14.2411271  53.7949767  36.7931344  13.8317123
  52.5808091  36.1611661  13.7567590  53.0750209  36.6567795  14.1088981
  53.9254577  35.5385875  26.5264003  53.2499579  35.3071107  27.0277390
  53.9346953  34.9307058  25.9006108  53.8273082  35.4144800  26.5080156
  55.9271312  38.3951007  18.7574181  56.0091149  39.2017994  18.4335632
  56.4121054  38.4146967  19.4814955  56.0108470  38.5171670  18.8161080
  45.0250260  33.5687895  22.8572232  45.1814879  33.5034698  23.7128224
  45.3650853  34.3436447  22.6450911  45.0983495  33.6737093  22.9526826
  51.5629405  32.9445778  21.7265595  52.1044950  32.4416159  22.1904216
  51.8775964  32.8910973  20.9155080  51.6893802  32.8625199  21.6749407
  49.7315854  38.3363130  19.0105623  49.8008675  37.4777668  19.1498623
  50.5104310  38.5535011  18.6824648  49.8568704  38.2415994  18.9822780
  54.1223342  40.7600831  23.2242116  53.7303134  40.4567546  22.5064982
  54.2776414  41.5969921  23.0347070  54.0876932  40.8384668  23.0898613
  54.8757762  29.4471148  32.7171202  54.0634444  29.1397038  32.7984375
  55.3347697  28.9670148  33.2813915  54.8238147  29.3307640  32.8125797
  54.2863017  37.3250820  23.1648147  53.9277671  37.4965463  23.9412179
  53.8001728  37.7864026  22.6076145  54.1621714  37.4189791  23.1973416
  52.1033403  20.9482019  26.7675238  51.2326961  20.9220740  26.7208548
  52.3573744  20.7759211  25.9501084  52.0126963  20.9192162  26.6395375
  49.0751382  33.0049985  15.7048381  49.3643907  33.7814868  15.9791956
  49.1623181  32.4938717  16.4062881  49.1305638  33.0441904  15.8490879
  49.1282543  22.9588247  28.2248709  48.6121032  22.2668438  28.3500288
  48.5676472  23.6259024  28.1711307  48.9689056  22.9551505  28.2354775
  51.1974777  23.4981207  30.0541561  50.8106530  23.5230239  30.8355091
  50.7107714  22.9322886  29.6016078  51.0687286  23.4176958  30.1029465
  57.1724756  30.0643862  28.6781263  56.7452364  29.9770211  27.9229363
  56.5350809  30.1721637  29.2636107  57.0154363  30.0676522  28.6526705
  50.8631918  20.3848193  32.3451821  51.4925036  20.9208493  32.0672891
  51.0317781  20.2925551  33.1965387  50.9809713  20.4509555  32.4300349
  42.7190890  29.9402787  25.6333244  42.3247588  30.0145799  24.8583354
  42.1631007  30.3260733  26.1841606  42.5793702  30.0084562  25.6000904
  54.3555837  22.9184081  25.3137123  54.5605430  22.8506389  26.1594120
  54.0282261  23.7242902  25.2458300  54.3371085  23.0270021  25.4296778
  49.0531988  30.2464649  27.0546091  48.7495125  29.6920637  27.6556498
  48.3511409  30.4256859  26.5674125  48.9048198  30.1909432  27.0715796
  48.1098085  27.5565169  21.6190793  48.3857819  26.8384082  21.2068360
  48.7096754  28.1550089  21.4111899  48.2391350  27.5385540  21.5271554
  57.6089525  23.4715845  24.7939888  56.9963838  23.9586247  25.1793620
  57.7053699  22.7959336  25.3377540  57.5327422  23.4434154  24.9318747
  51.6108606  25.2278686  19.8937388  52.0652352  25.3989247  20.6185232
  52.0848651  24.6146797  19.4935163  51.7476926  25.1629572  19.9411149
  45.5284754  25.8729010  29.8908144  45.9886235  25.9467940  30.6283268
  45.5740861  26.6710264  29.5407965  45.6035309  26.0023157  29.9480900
  61.2514553  34.5432782  30.2217404  61.3097676  34.9919431  30.9677381
  60.6181020  34.9531595  29.7847484  61.1665848  34.6706517  30.2669953
  48.9521626  31.9321221  20.9982395  49.6963671  32.3195497  21.2365345
  49.0982322  31.0878646  21.1622883  49.0832211  31.8651694  21.0576365
  50.8701201  23.7271480  26.0314256  50.0237246  23.8994287  25.9055606
  50.8672333  22.9220823  26.3680085  50.7448351  23.6332509  26.0625383
  51.9399501  27.5046694  26.8976314  51.4659456  26.9788456  27.4081625
  52.3117637  26.9576167  26.3291176  51.9249390  27.3462691  26.8891461
  58.2036232  32.5649070  28.3083095  57.9634455  31.7255485  28.3125521
  58.6828239  32.6449236  29.0323868  58.2388416  32.4530469  28.4157897
  53.8683001  28.3983249  19.9602068  53.3406020  28.4811993  19.2707777
  54.3278709  29.1401120  19.9566713  53.8584852  28.5203911  19.8576763
  60.2041419  29.3450527  26.2612354  59.9651189  29.3046361  25.4233138
  60.3675320  30.1921679  26.3878075  60.1931722  29.4642612  26.1565836
  56.8087449  33.7300476  32.1917399  57.5321648  33.2773003  32.0128419
  56.5437411  34.0105142  31.4089727  56.8768722  33.7051445  32.0496114
  45.6774318  28.3260650  28.9270278  45.0527388  28.3379042  28.3196231
  45.3419912  28.8020825  29.5761518  45.5359809  28.3979167  28.9326847
  45.8616066  26.6685768  14.9842963  45.5128871  27.3205493  15.4474513
  45.3812512  26.6542881  14.2566834  45.7386310  26.7628822  14.9454054
  53.4220084  36.9686812  19.0911725  54.1454282  37.4344925  18.9476298
  52.9820675  37.0360422  18.3409322  53.4635776  37.0470649  18.9596506
  52.8885366  22.1015033  31.6995936  52.3925927  22.2978707  31.0087503
  53.6454428  22.5007701  31.5284738  52.9272191  22.1892767  31.5716073
  50.1588245  25.7757379  28.2899247  50.1830733  25.2417491  27.6012027
  50.4099719  25.2674688  28.9524837  50.1998164  25.6218283  28.2863891
  46.4389568  24.5028197  27.6704991  46.4787939  25.0037404  28.3839698
  45.6139232  24.5938591  27.4010914  46.3229094  24.5910014  27.7355529
  46.2339975  29.2944299  20.4969008  46.3742936  29.7916763  21.1997649
  46.7322508  28.5930593  20.6383221  46.3281056  29.2646277  20.6220587
  46.2640197  30.1611410  17.8261585  46.8985277  30.7571835  17.7611046
  46.3465808  29.8614867  18.6407455  46.3696748  30.2052318  17.9364671
  59.2422763  32.6926887  30.6947949  59.8340603  33.3324138  30.7266147
  59.6781758  31.9949924  30.9840016  59.3941194  32.6845237  30.7428781
  47.8419180  26.0925385  17.8007027  48.1635021  25.6128468  17.1466289
  48.1046124  26.9025031  17.6097838  47.9285206  26.1415283  17.6762519
  53.2378335  25.4797579  30.1630506  53.6633407  25.0270105  29.5514032
  52.6235328  24.9257650  30.4395293  53.2106981  25.3311555  30.1135531
  42.7693185  32.3579250  21.0951131  43.2785415  32.9543758  21.4762436
  43.2427457  32.0905224  20.4127550  42.9136561  32.4065066  21.0505653
  53.6823933  41.0307517  19.2509786  52.9653243  40.8568379  18.7857024
  54.3330671  40.7960089  18.7185272  53.6725784  40.9703310  19.1039004
  51.6772558  21.9512679  23.5721083  51.0340876  21.8010325  24.1406221
  51.3371965  21.7055024  22.8070187  51.5317635  21.8924801  23.5424098
  56.2671904  29.9072106  22.9951091  55.5963094  30.4501808  22.8664157
  56.9611655  30.3766961  22.7532786  56.2700772  30.0570377  22.9406619
  56.4300032  26.3627989  25.9041464  56.7827642  25.9357712  26.5787263
  55.5714833  26.2778833  26.0342541  56.3549477  26.2872730  26.0236475
  45.1283717  28.9935509  23.9624311  44.4095706  29.4099642  24.2297175
  45.4996079  29.5589748  23.4115949  45.0775649  29.1384790  23.9207118
  54.4283298  29.6263358  29.8526307  54.4081225  29.4446653  30.7061086
  54.4762498  30.4975376  29.8285890  54.4317939  29.7279896  29.9749601
  50.9030291  28.0333509  19.2997690  50.3095131  28.3550505  18.7482258
  50.9405569  27.1874604  19.0918797  50.8204680  27.9557837  19.1880462
  57.8624092  21.4846401  26.8325777  57.3554957  20.7775541  26.7646954
  58.6591526  21.1539590  26.9626854  57.9051331  21.3319553  26.8424772
  53.7788108  27.9913013  22.7299441  53.5501801  28.0145715  21.8877799
  54.0386184  27.1670480  22.8494451  53.7834296  27.8729093  22.6224638
  46.8332870  26.5289560  24.0253636  47.3090237  26.8906640  23.3903818
  46.3321470  27.1846027  24.3053779  46.8298229  26.6783748  23.9730377
  60.0644232  36.0011328  19.8166641  60.4477838  36.7502684  20.0464738
  59.2688345  36.2477147  19.5578630  60.0038014  36.1481022  19.8124215
  48.8759524  28.6730759  17.3927020  49.2558488  28.6910389  16.6078135
  48.1352120  29.1184748  17.2717868  48.8228361  28.7412534  17.2590589
  56.5044814  26.9812951  22.9802599  56.5039041  26.8261607  23.8386875
  56.3000994  27.8275938  22.9243985  56.4744592  27.0833571  23.0990538
  54.2285666  31.6610452  26.6338806  54.7239331  30.9433448  26.5942826
  53.4185442  31.3581250  26.5193293  54.1829559  31.5108099  26.6112532
  49.6744278  35.5108266  18.7835810  48.8655600  35.1874939  18.7369120
  50.1819187  34.8041488  18.7164059  49.6293944  35.3589582  18.7666105
  56.2937485  34.4114140  29.3215935  56.7192557  33.8888562  28.7686360
  55.9294405  35.0094977  28.8004558  56.3024088  34.4224367  29.1624944
  52.8816084  38.1248404  25.6517092  53.3527263  38.8388667  25.8207077
  53.2176263  37.5247154  26.1876962  53.0011199  38.1419869  25.7549468
  49.7985579  22.8975875  32.6075187  49.9313485  22.1006868  32.9356162
  50.1830732  23.4242278  33.1873463  49.8741908  22.8575792  32.7418690
  52.8717935  19.8206201  29.2056280  52.0663898  19.7103931  29.5224118
  52.7424670  19.9218657  28.3486146  52.7338067  19.8189871  29.1264321
  56.3283895  25.9851693  29.7995977  55.7446884  26.4860899  29.3873544
  56.6488189  25.4781249  29.1660300  56.2897070  25.9843528  29.6454484
  48.8678694  24.8992288  20.0754652  49.6894389  25.0690601  19.8336347
  48.4048345  25.0539549  19.3520949  48.9209857  24.9474021  19.9326296
  47.4574026  22.8935050  30.8553081  48.0018439  22.5526177  31.4457422
  47.5110962  23.7520511  30.9974365  47.5463146  22.9690309  30.9634954
  69.5562007  46.5782263  21.9097002  69.5256012  47.4326899  22.0815272
  70.1543356  46.2777555  22.4683146  69.6399165  46.6598759  22.0171805
  62.7561692  45.6657914  26.6649933  61.8999588  45.8266412  26.7159050
  62.8029346  44.7949978  26.6854994  62.6360804  45.5608716  26.6755999
  57.1402832  55.2020632  22.4287164  56.3885732  54.8236170  22.2003209
  57.5888844  55.2339065  21.6805975  57.0952499  55.1506239  22.2844666
  66.0655409  51.9344439  36.2710389  66.7722176  51.4396470  36.3997323
  66.2543344  52.3753521  35.5413047  66.1983314  51.9262790  36.1819434
  62.5927792  55.6246001  17.8572711  62.2579160  56.3022923  17.4216934
  63.1054662  55.2351312  17.2689583  62.6193373  55.6670579  17.7059503
  62.1332083  57.5760270  23.7983823  62.5171463  58.1447169  23.2588598
  62.0691224  56.8509780  23.3189639  62.1805510  57.5535733  23.6477686
  65.6013513  47.7249958  29.3081584  66.1469473  48.4035044  29.3675554
  65.5430390  47.5837419  28.4483166  65.6729428  47.8041959  29.1893645
  58.7187588  55.2139024  24.6949937  58.8197951  54.4039378  25.0047065
  58.1229333  55.1195970  24.0649615  58.6460127  55.0804052  24.6476175
  67.3778582  49.1534565  20.1815312  67.2618108  49.9042251  20.6107450
  68.1734469  48.8958518  20.4311399  67.4783171  49.2269412  20.2819404
  58.5588328  60.1316613  26.0964793  59.2025783  60.5729777  26.4860951
  58.8844583  59.3270039  26.0095052  58.7020156  60.0781808  26.1410270
  51.9152632  51.2359310  24.3202270  51.6802817  50.4026963  24.2134539
  52.0538273  51.5163976  23.5063471  51.9008295  51.1542814  24.1844625
  54.2142720  43.4045041  27.2186578  53.5947752  42.8137688  27.0496593
  54.1126584  43.9956476  26.5850901  54.1080395  43.4049123  27.0991568
  59.2608907  53.1428588  21.4684655  59.5824749  53.6833795  20.8645963
  59.9081004  52.5725359  21.6006944  59.4034963  53.1387763  21.3991690
  61.3110616  45.1444583  21.5519041  62.0090780  45.3232710  22.0440505
  61.6262948  44.6214922  20.9289431  61.4605953  45.0938355  21.5321051
  61.4998551  51.5315028  21.5398833  61.9392186  50.9232128  21.9853606
  61.3503214  51.1522401  20.7684298  61.5420017  51.3853499  21.4918000
  61.5056285  52.9713945  28.3924551  61.7879528  52.1765351  28.1711307
  62.2342446  53.4494533  28.4129612  61.6545849  52.9248542  28.3627566
  59.4837479  40.5136979  25.6340316  59.1540809  40.9648123  24.9644015
  58.8082481  40.4353143  26.1813322  59.3347915  40.5688115  25.6163539
  65.1007888  49.8842209  18.4929602  65.0159183  50.7403176  18.6379171
  65.5892271  49.6086533  19.1611761  65.1596785  49.9699531  18.6131684
  66.6913887  36.5022502  23.8789927  66.3767328  37.1925981  24.3110349
  66.1740829  36.4467285  23.1775427  66.5678357  36.5957391  23.8386876
  66.0326321  46.5027003  19.9927337  65.5037792  46.7186637  20.6524643
  66.5551341  47.1963142  19.9128306  66.0314774  46.6370140  20.0782936
  71.4874374  52.0773308  25.3660382  70.6572077  52.2883951  25.5293798
  71.4383626  51.2510362  25.0902665  71.3581109  51.9862914  25.3497747
  57.9225929  50.3990220  18.7934805  57.3383144  50.9040251  19.2000669
  57.5196024  50.1732607  18.0531397  57.7765232  50.4398468  18.7439830
  59.5484111  54.9077162  28.2008291  59.0311053  54.5484577  27.5969599
  60.2458502  54.3839336  28.2114357  59.5749692  54.7774850  28.1138550
  63.2047703  55.3571976  34.1624464  63.2931049  55.1698116  35.0102674
  63.6337416  54.7109406  33.7629311  63.2809806  55.2334984  34.2296216
  60.7718163  54.6403136  33.1442126  60.2088998  54.2275746  33.6681788
  61.5339186  54.5656042  33.5635270  60.8012612  54.5680536  33.2835127
  62.3803143  46.6455872  17.2703726  62.6199147  46.8533856  16.4579069
  62.7018984  45.8413381  17.3792670  62.4640301  46.5569973  17.1664279
  57.6893433  38.5749268  21.1163264  58.4439401  38.9427585  20.8780314
  57.5120968  38.9488822  21.8842443  57.7747912  38.6847456  21.1948152
  56.3314154  56.6301157  25.7478756  57.0334734  56.1153146  25.8051513
  56.2511637  56.9575308  26.5525632  56.4237915  56.6015383  25.8751549
  70.9828332  44.7243708  29.1610803  70.1456753  44.7945895  29.3958397
  70.9516563  44.7268203  28.2885105  70.8546614  44.7353935  29.0670351
  56.0450498  40.9819587  17.8141377  55.8626071  41.1991468  16.9882369
  56.9076111  41.0958600  17.8699991  56.1455087  41.0309485  17.6995864
  55.6564930  52.8207509  25.2564365  56.4953829  53.0530442  25.3038126
  55.6876699  51.9511820  25.1871400  55.7846647  52.7264456  25.2529009
  61.7250217  37.9845998  20.8490400  62.4536377  37.8061952  20.4028557
  61.8145110  38.8264077  21.0597579  61.8456879  38.0829876  20.8143918
  65.7058518  48.9199385  24.7522694  66.4616033  49.3530899  24.7911603
  65.8120842  48.2704155  25.3257330  65.8328688  48.8876869  24.8420720
  68.7438689  52.7472662  25.5025097  68.3073921  52.7509405  26.2584069
  68.4101604  53.4278161  25.0704675  68.6301309  52.8485118  25.5505930
  68.6636172  39.7886490  27.7454525  69.3062080  39.8584595  28.3316441
  68.9159192  39.1215713  27.2434067  68.7958304  39.7012839  27.7581805
  55.5912525  44.2593759  16.3263850  54.8770702  43.9731939  16.7386282
  56.0756494  44.5990385  16.9670237  55.5571888  44.2675409  16.4819485
  63.4738156  56.6991097  30.4734703  62.6753402  56.4590597  30.7308572
  63.9224167  56.7505490  31.2201751  63.4212767  56.6713488  30.6219628
  71.8783035  49.4653582  24.3944735  72.5399469  48.9044251  24.2940643
  71.2374447  48.9705613  24.7197426  71.8811903  49.3089991  24.4277075
  62.7659843  52.7623713  16.7025658  63.1810991  52.4308737  16.0110154
  61.9351772  52.5292616  16.5745795  62.7047852  52.6794969  16.5816505
  68.1647866  50.4818964  24.1356723  68.4003455  50.6264163  23.3083574
  68.3137429  51.2461372  24.5288237  68.2213669  50.6158019  24.0720327
  69.9938322  49.3220630  21.9726327  70.3246540  49.8548271  21.3666422
  70.5671411  49.3759518  22.6288278  70.1272002  49.4090199  21.9804109
  65.2070212  47.1685533  22.6549907  65.3017066  47.9074827  23.1089533
  64.5829055  46.7403009  23.0884472  65.1279242  47.2146854  22.7858055
  63.4622685  50.3471746  33.3040188  64.0361547  49.7098990  33.4588752
  63.3837489  50.3475828  32.4349846  63.5355920  50.2536857  33.1986599
  65.4593233  49.0134273  15.8886859  65.3773395  49.0836460  16.7541846
  66.0972953  49.5764017  15.6970600  65.5413070  49.1073244  15.9876809
  58.8186404  48.7795011  25.3561386  58.5605648  47.9466746  25.3292685
  58.8734887  49.0052624  24.5153886  58.7886182  48.6892782  25.2281522
  63.8987454  40.8823462  25.4565478  63.1943781  40.3932647  25.6149397
  63.9472429  40.8945936  24.5853923  63.8017506  40.8113109  25.3504818
  57.7921116  46.3332773  25.8426280  57.2170707  46.4924942  26.4790241
  57.4156793  45.6968182  25.3794731  57.6523929  46.2630586  25.8680839
  71.1017674  44.5631127  23.4766489  70.8454239  43.7511069  23.2864372
  71.9446988  44.5708694  23.2496676  71.1883699  44.4443125  23.4151306
  65.2820766  38.5030751  28.2142643  65.6631278  37.8208922  28.6010517
  64.4784051  38.2140353  28.0318307  65.2197228  38.3597800  28.2446699
  62.5633343  49.0354727  18.8995466  63.3773982  49.3269620  18.7878237
  62.4992484  48.3814590  18.3253759  62.6736082  48.9819922  18.7984303
  68.7842833  51.7180723  33.3125041  68.5481471  50.8868788  33.1937102
  69.4286062  51.6666330  33.8979886  68.8437504  51.5878411  33.3810935
  58.4341251  52.5076245  24.0267778  59.0715198  52.2687992  24.5719571
  58.8596323  52.7113404  23.2920938  58.5917418  52.5027255  23.9984935
  59.0744066  47.7278534  18.3642667  59.4589219  47.5086241  19.1159212
  58.8255687  48.5541480  18.4943744  59.0946139  47.8176681  18.4943744
  69.8079254  51.5025172  29.3753336  69.5025071  52.2353229  29.7366652
  69.0885470  51.0963102  29.0946122  69.6566596  51.5506905  29.3866473
  60.8162723  52.9848667  25.7061564  60.8901732  52.8223839  26.5603414
  61.6332230  53.1738857  25.4622046  60.9479082  52.9885410  25.7959590
  75.5081046  48.1418173  28.7021680  75.4405546  48.1614132  27.8324267
  75.4936708  48.9848500  28.9277351  75.4959803  48.2691907  28.6074157
  54.5768480  53.3306530  22.7356008  53.7506598  53.5768267  22.6090286
  54.6380471  53.2518611  23.6018066  54.4642647  53.3551479  22.8444952
  56.7944504  39.3975471  23.6951448  55.9266929  39.4698071  23.7609057
  57.0819708  40.1997550  23.8839423  56.7084252  39.5269618  23.7326214
  65.9177393  39.5453330  32.0262770  66.6630985  39.3563141  31.6126195
  65.5014697  40.0711568  31.4676626  65.9662367  39.5955476  31.8827343
  59.3567309  55.9483410  20.4375038  59.6465607  55.5572392  19.7134264
  60.0870790  56.1300115  20.8780313  59.5074193  55.9177224  20.3957845
  73.2939663  46.9162559  26.9768275  73.8447585  46.2830628  27.2165367
  73.2783779  47.4477952  27.6683779  73.3724860  46.9011507  27.1147133
  57.2973225  57.9250793  23.5035187  57.0773520  57.6348147  24.2961854
  57.0767747  57.2665748  22.9753100  57.2320819  57.7850501  23.5424096
  56.2090172  50.0124109  25.7690889  55.9203420  49.3861580  26.3036616
  57.0773520  49.9544397  25.8355569  56.2950424  49.9111653  25.8581843
  66.9968070  45.1558893  26.0872871  66.6532835  44.4349228  26.4380120
  67.0961112  44.9472744  25.2451229  66.9610112  45.0183096  26.0144551
  59.4641180  59.2980183  22.2865880  60.1165238  58.7656625  22.5156906
  58.7666789  58.9448835  22.6733754  59.4571898  59.1669706  22.3778047
  56.4122445  51.6519360  21.6933254  57.1668413  52.0332399  21.9068716
  55.8193058  52.1030504  22.1479950  56.4359159  51.7748188  21.7916132
  67.4581099  51.6184597  21.6296859  68.0239131  52.2777807  21.5455402
  66.8109002  51.9634295  22.1013261  67.4459855  51.7666538  21.6869615
  54.7211856  42.8733730  21.1368324  54.4336652  42.5035001  20.4000271
  55.4082324  43.3428586  20.8752029  54.7800753  42.8880700  20.9883400
  63.9287677  54.5623381  21.0533938  63.6874353  53.8291242  20.6461003
  64.1089010  55.1110238  20.4000271  63.9195301  54.5345772  20.8964161
  59.1586997  49.8531941  22.4654860  58.9629780  50.4606675  21.8715163
  59.3821343  49.1599885  21.9846534  59.1621638  49.8409466  22.3070941
  57.5565527  46.7386679  22.5835729  58.2788179  46.9027837  22.1239535
  57.0773520  47.4596343  22.4775069  57.5929258  46.8684908  22.5001343
  65.5159035  43.0750477  27.9632414  64.6770136  43.1011756  27.7270677
  65.5863402  43.7221213  28.5437760  65.4027429  43.1746603  28.0141531
  63.9628313  39.9735854  22.6960030  64.6654666  39.7743603  22.2179988
  63.6972502  39.2011797  23.0028873  64.0274946  39.8298820  22.6705471
  69.3916559  48.2818464  25.2493655  69.3050533  48.4373890  26.1028434
  68.9367039  48.9256540  24.8753060  69.3119815  48.3994219  25.3200762
  52.2940050  43.6514943  21.9853605  52.3956187  44.4541104  22.3134581
  53.0895937  43.4502279  21.6876686  52.4267956  43.7400842  21.9888960
  63.2642375  45.6029211  23.8719215  63.0177089  45.5224962  24.7056004
  63.5927498  44.8182679  23.6781742  63.2763618  45.4755477  23.9666738
  67.1590424  52.3112571  27.6605996  67.0204783  53.0093616  28.1654739
  66.3790422  52.1561227  27.3042178  67.0233651  52.3912737  27.6832270
  65.4968509  48.6108946  33.9128378  65.4916547  47.7388762  33.9170804
  66.2029503  48.8097115  33.4397834  65.6013513  48.5112820  33.8435413
  58.2967157  56.5288702  30.1503225  58.4456721  55.9691618  29.4976629
  59.0767159  56.6080703  30.5335744  58.4341251  56.4574267  30.1100174
  68.6543797  51.6690824  18.4222495  68.2750605  50.8827962  18.4151785
  67.9910042  52.2177681  18.2794140  68.5002271  51.6335648  18.4003292
  60.8220458  56.7003345  31.4287716  60.7464129  56.0312155  31.9838504
  60.7510317  57.4021133  31.9428382  60.8001065  56.7048252  31.5864564
  66.1088423  34.6116524  25.8256576  66.2271991  35.0692987  25.0923879
  65.9350598  33.8061785  25.5392794  66.1007593  34.5610296  25.6757510
  61.4790705  55.2204343  22.2611322  62.2440596  54.9513987  21.9393986
  61.3768795  54.7354354  22.9781384  61.5772200  55.1093908  22.3191149
  64.0009365  52.2516527  14.2411271  64.7682350  52.3116652  13.8317123
  63.5540674  51.6796969  13.7567590  64.0482793  52.1753103  14.1088981
  64.8987161  51.0571183  26.5264003  64.2232163  50.8256415  27.0277390
  64.9079537  50.4492366  25.9006108  64.8005665  50.9330108  26.5080156
  66.9003895  53.9136315  18.7574181  66.9823733  54.7203302  18.4335632
  67.3853638  53.9332275  19.4814955  66.9841053  54.0356978  18.8161080
  60.2112092  60.1071664  29.8865716  60.7008022  59.4082454  29.7041381
  59.6396324  59.8095534  30.4741774  60.1996622  59.9597888  29.9466757
  55.9982844  49.0873203  22.8572232  56.1547463  49.0220006  23.7128224
  56.3383437  49.8621755  22.6450911  56.0716078  49.1922401  22.9526826
  62.5361988  48.4631086  21.7265595  63.0777534  47.9601467  22.1904216
  62.8508547  48.4096281  20.9155080  62.6626385  48.3810507  21.6749407
  66.4079096  52.6733734  38.8392507  67.2213961  52.4018883  38.9997640
  66.2474062  52.3741274  38.0352703  66.5049044  52.5888660  38.7437913
  60.7048438  53.8548438  19.0105623  60.7741258  52.9962976  19.1498623
  61.4836893  54.0720319  18.6824648  60.8301288  53.7601302  18.9822780
  65.0955926  56.2786139  23.2242116  64.7035717  55.9752854  22.5064982
  65.2508998  57.1155229  23.0347070  65.0609515  56.3569976  23.0898613
  65.2595600  52.8436128  23.1648147  64.9010255  53.0150771  23.9412179
  64.7734311  53.3049334  22.6076145  65.1354297  52.9375099  23.1973416
  63.0765986  36.4667327  26.7675238  62.2059544  36.4406048  26.7208548
  63.3306328  36.2944519  25.9501084  62.9859546  36.4377470  26.6395375
  60.0483966  48.5235293  15.7048381  60.3376491  49.3000176  15.9791956
  60.1355765  48.0124025  16.4062881  60.1038222  48.5627212  15.8490879
  60.1015127  38.4773555  28.2248709  59.5853615  37.7853746  28.3500288
  59.5409056  39.1444332  28.1711307  59.9421640  38.4736813  28.2354775
  62.1707360  39.0166515  30.0541561  61.7839113  39.0415546  30.8355091
  61.6840298  38.4508194  29.6016078  62.0419869  38.9362266  30.1029465
  66.4200340  53.7340024  34.1115348  67.0580060  53.2400220  33.7777804
  65.7774431  53.6617424  33.5267575  66.4194566  53.6499032  33.9757703
  68.1457340  45.5829170  28.6781263  67.7184948  45.4955519  27.9229363
  67.5083393  45.6906945  29.2636107  67.9886947  45.5861830  28.6526705
  61.8364502  35.9033500  32.3451821  62.4657620  36.4393801  32.0672891
  62.0050365  35.8110859  33.1965387  61.9542297  35.9694863  32.4300349
  66.4754596  54.4259832  30.7520704  67.2646974  54.0748897  30.8722786
  66.6498194  55.2396221  30.4897338  66.6174878  54.4945689  30.7308572
  53.6923474  45.4588095  25.6333244  53.2980171  45.5331107  24.8583354
  53.1363590  45.8446041  26.1841606  53.5526286  45.5269870  25.6000904
  65.3288420  38.4369389  25.3137123  65.5338014  38.3691697  26.1594120
  65.0014844  39.2428210  25.2458300  65.3103668  38.5455329  25.4296778
  59.0830669  43.0750477  21.6190793  59.3590403  42.3569389  21.2068360
  59.6829338  43.6735397  21.4111899  59.2123933  43.0570848  21.5271554
  68.5822108  38.9901153  24.7939888  67.9696422  39.4771555  25.1793620
  68.6786283  38.3144644  25.3377540  68.5060006  38.9619462  24.9318747
  62.5841189  40.7463994  19.8937388  63.0384936  40.9174555  20.6185232
  63.0581235  40.1332105  19.4935163  62.7209509  40.6814880  19.9411149
  72.2247136  50.0618090  30.2217404  72.2830260  50.5104739  30.9677381
  71.5913604  50.4716903  29.7847484  72.1398431  50.1891825  30.2669953
  65.8646231  55.6821632  26.6572151  65.6665919  56.1712446  25.9628362
  65.2433942  55.8862873  27.2356284  65.7433795  55.7838170  26.6395374
  59.9254209  47.4506529  20.9982395  60.6696254  47.8380805  21.2365345
  60.0714905  46.6063954  21.1622883  60.0564794  47.3837001  21.0576365
  61.8433785  39.2456788  26.0314256  60.9969830  39.4179595  25.9055606
  61.8404917  38.4406131  26.3680085  61.7180935  39.1517817  26.0625383
  62.9132085  43.0232002  26.8976314  62.4392039  42.4973764  27.4081625
  63.2850221  42.4761475  26.3291176  62.8981974  42.8647999  26.8891461
  69.1768816  48.0834378  28.3083095  68.9367038  47.2440793  28.3125521
  69.6560823  48.1634544  29.0323868  69.2120999  47.9715777  28.4157897
  64.8415585  43.9168557  19.9602068  64.3138603  43.9997301  19.2707777
  65.3011293  44.6586428  19.9566713  64.8317435  44.0389219  19.8576763
  71.1774003  44.8635835  26.2612354  70.9383773  44.8231669  25.4233138
  71.3407904  45.7106987  26.3878075  71.1664306  44.9827920  26.1565836
  67.7820033  49.2485784  32.1917399  68.5054232  48.7958311  32.0128419
  67.5169995  49.5290450  31.4089727  67.8501306  49.2236753  32.0496114
  56.8348650  42.1871076  14.9842963  56.4861454  42.8390801  15.4474513
  56.3545096  42.1728189  14.2566834  56.7118894  42.2814130  14.9454054
  64.3952667  52.4872120  19.0911725  65.1186866  52.9530233  18.9476298
  63.9553258  52.5545730  18.3409322  64.4368359  52.5655957  18.9596506
  63.5638822  49.3469662  30.3412414  62.9495815  48.8027713  30.6361049
  64.0806107  48.8333899  29.8618230  63.5494485  49.1906071  30.3136642
  62.8035119  50.4173932  28.0756713  62.3762727  49.7923651  27.6422148
  62.7960064  50.1348854  28.9015720  62.7394261  50.2826713  28.1336540
  63.8617949  37.6200341  31.6995936  63.3658511  37.8164015  31.0087503
  64.6187012  38.0193009  31.5284738  63.9004774  37.7078075  31.5716073
  61.1320829  41.2942687  28.2899247  61.1563316  40.7602799  27.6012027
  61.3832303  40.7859996  28.9524837  61.1730748  41.1403591  28.2863891
  57.4122151  40.0213505  27.6704991  57.4520523  40.5222712  28.3839698
  56.5871816  40.1123899  27.4010914  57.2961677  40.1095322  27.7355529
  57.2072559  44.8129607  20.4969008  57.3475520  45.3102071  21.1997649
  57.7055091  44.1115901  20.6383221  57.3013639  44.7831585  20.6220587
  57.2372781  45.6796718  17.8261585  57.8717860  46.2757143  17.7611046
  57.3198392  45.3800175  18.6407455  57.3429332  45.7237626  17.9364671
  70.2155347  48.2112195  30.6947949  70.8073187  48.8509446  30.7266147
  70.6514341  47.5135232  30.9840016  70.3673778  48.2030545  30.7428781
  58.8151764  41.6110693  17.8007027  59.1367605  41.1313776  17.1466289
  59.0778708  42.4210339  17.6097838  58.9017789  41.6600591  17.6762519
  62.0448737  52.6329567  31.3205843  61.5373828  53.1865414  31.7646473
  61.7475383  52.6937857  30.5024617  61.9253621  52.7235879  31.2654299
  53.7425769  47.8764558  21.0951131  54.2517998  48.4729066  21.4762436
  54.2160041  47.6090532  20.4127550  53.8869144  47.9250374  21.0505653
  64.6556517  56.5492825  19.2509786  63.9385827  56.3753687  18.7857024
  65.3063254  56.3145397  18.7185272  64.6458367  56.4888618  19.1039004
  62.6505142  37.4697987  23.5721083  62.0073460  37.3195633  24.1406221
  62.3104549  37.2240332  22.8070187  62.5050219  37.4110109  23.5424098
  67.2404488  45.4257414  22.9951091  66.5695678  45.9687116  22.8664157
  67.9344238  45.8952269  22.7532786  67.2433356  45.5755685  22.9406619
  61.2891222  57.5654126  28.2262850  61.0656876  56.8072955  28.5946876
  60.8001065  57.5952147  27.5043289  61.1834671  57.4576350  28.1739591
  67.4032616  41.8813297  25.9041464  67.7560226  41.4543020  26.5787263
  66.5447417  41.7964141  26.0342541  67.3282060  41.8058038  26.0236475
  56.1016301  44.5120817  23.9624311  55.3828290  44.9284950  24.2297175
  56.4728663  45.0775056  23.4115949  56.0508232  44.6570098  23.9207118
  65.4015881  45.1448666  29.8526307  65.3813809  44.9631961  30.7061086
  65.4495082  46.0160684  29.8285890  65.4050522  45.2465204  29.9749601
  59.9369679  57.7854584  25.6799934  59.5230077  57.1228714  25.2903776
  60.6217053  57.9332442  25.1595628  59.9768050  57.7095242  25.5456431
  63.3034973  56.9444669  26.4323551  62.9051256  57.0546939  25.6644371
  62.6886192  57.1526735  27.0150111  63.1533862  56.9918237  26.4054850
  61.8762875  43.5518817  19.2997690  61.2827714  43.8735813  18.7482258
  61.9138153  42.7059912  19.0918797  61.7937264  43.4743145  19.1880462
  68.8356676  37.0031709  26.8325777  68.3287540  36.2960849  26.7646954
  69.6324109  36.6724898  26.9626854  68.8783915  36.8504860  26.8424772
  64.7520691  43.5098321  22.7299441  64.5234384  43.5331023  21.8877799
  65.0118768  42.6855788  22.8494451  64.7566880  43.3914401  22.6224638
  57.8065454  42.0474868  24.0253636  58.2822820  42.4091947  23.3903818
  57.3054054  42.7031335  24.3053779  57.8030813  42.1969056  23.9730377
  71.0376816  51.5196636  19.8166641  71.4210421  52.2687992  20.0464738
  70.2420929  51.7662455  19.5578630  70.9770598  51.6666330  19.8124215
  59.8492107  44.1916067  17.3927020  60.2291072  44.2095697  16.6078135
  59.1084703  44.6370056  17.2717868  59.7960945  44.2597842  17.2590589
  67.4777398  42.4998259  22.9802599  67.4771624  42.3446915  23.8386875
  67.2733578  43.3461246  22.9243985  67.4477176  42.6018879  23.0990538
  65.2018250  47.1795760  26.6338806  65.6971915  46.4618755  26.5942826
  64.3918025  46.8766558  26.5193293  65.1562143  47.0293407  26.6112532
  60.6476861  51.0293574  18.7835810  59.8388184  50.7060247  18.7369120
  61.1551770  50.3226796  18.7164059  60.6026528  50.8774890  18.7666105
  67.2670069  49.9299448  29.3215935  67.6925140  49.4073870  28.7686360
  66.9026988  50.5280285  28.8004558  67.2756671  49.9409675  29.1624944
  56.9024148  58.2263665  28.0813280  57.2170707  59.0400054  28.0891062
  57.3117562  57.8413884  28.7495439  57.0092246  58.2892368  28.1817372
  63.8548668  53.6433712  25.6517092  64.3259846  54.3573975  25.8207077
  64.1908847  53.0432462  26.1876962  63.9743783  53.6605176  25.7549468
  65.9425653  55.2535026  37.8309164  66.0522618  54.4643586  38.1865911
  66.2716549  55.1640962  37.0283502  66.0078058  55.1240878  37.7651555
  64.4922614  53.4351646  32.4144785  63.9443560  52.8109530  32.1464850
  64.9535643  53.6245918  31.6988864  64.4789824  53.3710697  32.2695216
  63.8450518  35.3391509  29.2056280  63.0396482  35.2289239  29.5224118
  63.7157254  35.4403965  28.3486146  63.7070651  35.3375179  29.1264321
  67.3016479  41.5037001  29.7995977  66.7179468  42.0046207  29.3873544
  67.6220773  40.9966557  29.1660300  67.2629654  41.5028836  29.6454484
  59.8411278  40.4177596  20.0754652  60.6626972  40.5875908  19.8336347
  59.3780929  40.5724857  19.3520949  59.8942440  40.4659329  19.9326296
  64.0580941  54.4402719  28.9454126  64.8779314  54.2965685  29.2070421
  63.7775018  55.0648918  29.4870564  64.1377684  54.5113071  29.0642065
  73.7294276  61.1843222  26.6649933  72.8732171  61.3451720  26.7159050
  73.7761930  60.3135286  26.6854994  73.6093387  61.0794024  26.6755999
  68.1135416  70.7205940  22.4287164  67.3618315  70.3421478  22.2003209
  68.5621427  70.7524373  21.6805975  68.0685082  70.6691547  22.2844666
  77.0387992  67.4529747  36.2710389  77.7454760  66.9581778  36.3997323
  77.2275928  67.8938829  35.5413047  77.1715898  67.4448098  36.1819434
  76.5746097  63.2435266  29.3081584  77.1202057  63.9220352  29.3675554
  76.5162973  63.1022727  28.4483166  76.6462011  63.3227267  29.1893645
  69.6920172  70.7324332  24.6949937  69.7930535  69.9224686  25.0047065
  69.0961917  70.6381278  24.0649615  69.6192710  70.5989360  24.6476175
  62.8885216  66.7544618  24.3202270  62.6535400  65.9212271  24.2134539
  63.0270857  67.0349284  23.5063471  62.8740878  66.6728122  24.1844625
  65.1875303  58.9230349  27.2186578  64.5680335  58.3322996  27.0496593
  65.0859167  59.5141784  26.5850901  65.0812979  58.9234431  27.0991568
  72.2843199  60.6629891  21.5519041  72.9823364  60.8418018  22.0440505
  72.5995532  60.1400230  20.9289431  72.4338536  60.6123663  21.5321051
  64.9144437  62.4682631  29.4630147  64.7903133  63.0545076  30.0979966
  65.5662721  61.9742826  29.7642422  64.9918086  62.4821435  29.6016076
  72.4731135  67.0500336  21.5398833  72.9124770  66.4417436  21.9853606
  72.3235797  66.6707709  20.7684298  72.5152600  66.9038807  21.4918000
  69.9402778  65.6444348  28.7417658  70.5851780  65.1516791  28.4228607
  70.1804555  65.7869134  29.5683737  70.0713363  65.5921790  28.8167191
  72.4788869  68.4899253  28.3924551  72.7612112  67.6950659  28.1711307
  73.2075029  68.9679841  28.4129612  72.6278433  68.4433850  28.3627566
  70.4570063  56.0322287  25.6340316  70.1273393  56.4833431  24.9644015
  69.7815065  55.9538451  26.1813322  70.3080499  56.0873423  25.6163539
  77.6646470  52.0207810  23.8789927  77.3499911  52.7111289  24.3110349
  77.1473412  51.9652593  23.1775427  77.5410941  52.1142699  23.8386876
  64.4502541  71.6330289  25.5958477  63.9670119  72.3580779  25.5718060
  65.2625859  71.9306419  25.7068634  64.4993288  71.7832643  25.6085756
  70.5216695  70.4262470  28.2008291  70.0043636  70.0669885  27.5969599
  71.2191086  69.9024644  28.2114357  70.5482276  70.2960158  28.1138550
  71.7450747  70.1588444  33.1442126  71.1821581  69.7461054  33.6681788
  72.5071770  70.0841350  33.5635270  71.7745195  70.0865844  33.2835127
  68.6626017  54.0934576  21.1163264  69.4171985  54.4612893  20.8780314
  68.4853551  54.4674130  21.8842443  68.7480495  54.2032764  21.1948152
  67.3046738  72.1486465  25.7478756  68.0067317  71.6338454  25.8051513
  67.2244221  72.4760616  26.5525632  67.3970498  72.1200691  25.8751549
  68.3525645  62.3862052  34.8759172  68.5246148  62.2767947  35.7244453
  68.8895002  63.0316457  34.6390364  68.4570649  62.4654054  34.9664268
  67.0183081  56.5004895  17.8141377  66.8358655  56.7176776  16.9882369
  67.8808694  56.6143907  17.8699991  67.1187671  56.5494793  17.6995864
  66.6297513  68.3392817  25.2564365  67.4686413  68.5715750  25.3038126
  66.6609283  67.4697128  25.1871400  66.7579231  68.2449763  25.2529009
  67.2550216  68.7593692  29.5577670  67.7948441  68.6164823  30.2281042
  66.5720163  69.1590443  29.9261696  67.2342370  68.7973363  29.7112092
  72.6982801  53.5031305  20.8490400  73.4268961  53.3247260  20.4028557
  72.7877694  54.3449385  21.0597579  72.8189463  53.6015184  20.8143918
  76.6791101  64.4384693  24.7522694  77.4348616  64.8716207  24.7911603
  76.7853426  63.7889463  25.3257330  76.8061272  64.4062177  24.8420720
  62.6587361  64.9793983  29.7112092  62.3925777  64.1633100  29.8703082
  62.6725926  65.0247139  28.8407607  62.6212084  64.8650888  29.6065574
  66.5645108  59.7779067  16.3263850  65.8503286  59.4917247  16.7386282
  67.0489077  60.1175693  16.9670237  66.5304472  59.7860717  16.4819485
  67.4085968  58.5172361  32.3579099  66.7157765  58.0469341  32.6039831
  68.0246295  58.2910666  32.9320806  67.3970498  58.4139493  32.4788252
  63.0680775  65.7652762  26.9923836  62.8856348  65.7399648  26.1396128
  63.8030444  66.2351700  27.0312745  63.1494839  65.8314125  26.8721754
  66.1326527  62.4837765  33.5005944  66.8566499  62.4690796  33.9870839
  66.2342663  63.1933121  33.0027913  66.2544736  62.5862468  33.4984731
  73.5071476  65.9636850  38.3654891  72.7144457  66.2780362  38.5507511
  73.6220403  66.1788318  37.5275676  73.4066887  66.0420687  38.2693226
  76.1802795  62.6870841  22.6549907  76.2749650  63.4260135  23.1089533
  75.5561639  62.2588316  23.0884472  76.1011825  62.7332162  22.7858055
  74.4355269  65.8657054  33.3040188  75.0094131  65.2284298  33.4588752
  74.3570073  65.8661136  32.4349846  74.5088504  65.7722165  33.1986599
  63.0351685  62.6446263  27.1422902  63.6125188  62.5082714  27.7815148
  62.3365747  62.1882047  27.3968487  63.0172707  62.5568529  27.2745192
  69.7918988  64.2980319  25.3561386  69.5338232  63.4652054  25.3292685
  69.8467470  64.5237932  24.5153886  69.7618766  64.2078090  25.2281522
  74.8720038  56.4008769  25.4565478  74.1676365  55.9117955  25.6149397
  74.9205012  56.4131244  24.5853923  74.7750089  56.3298417  25.3504818
  68.7653700  61.8518081  25.8426280  68.1903291  62.0110250  26.4790241
  68.3889376  61.2153490  25.3794731  68.6256512  61.7815894  25.8680839
  72.4326988  60.3241431  30.7018659  72.0441421  59.8995648  30.0470850
  71.7681687  60.5723580  31.2095685  72.2773916  60.2980152  30.6806527
  58.5110519  61.4958156  23.8570721  58.5970771  61.1190024  24.6384251
  59.1386316  61.1218602  23.3790679  58.6167070  61.3843638  23.9016198
  76.2553350  54.0216059  28.2142643  76.6363862  53.3394230  28.6010517
  75.4516634  53.7325661  28.0318307  76.1929812  53.8783108  28.2446699
  69.4073835  68.0261553  24.0267778  70.0447782  67.7873300  24.5719571
  69.8328907  68.2298711  23.2920938  69.5650001  68.0212563  23.9984935
  64.0986477  70.2649889  27.9102082  64.1390623  70.5364740  27.0821861
  64.6581001  70.7891797  28.3259870  64.1869823  70.3825644  27.8493970
  70.0476650  63.2463842  18.3642667  70.4321803  63.0271549  19.1159212
  69.7988270  64.0726788  18.4943744  70.0678723  63.3361989  18.4943744
  70.2145190  56.5270258  38.0805251  69.8998631  57.2969820  37.8174814
  69.8935123  55.9640514  37.4957478  70.1204109  56.5580526  37.9546601
  65.5501064  68.8491838  22.7356008  64.7239181  69.0953575  22.6090286
  65.6113055  68.7703919  23.6018066  65.4375231  68.8736787  22.8444952
  67.7677087  54.9160779  23.6951448  66.8999513  54.9883378  23.7609057
  68.0552292  55.7182858  23.8839423  67.6816835  55.0454926  23.7326214
  76.8909976  55.0638638  32.0262770  77.6363568  54.8748449  31.6126195
  76.4747281  55.5896876  31.4676626  76.9394950  55.1140784  31.8827343
  70.9194638  66.2686464  31.5228168  70.4206331  66.9802232  31.6013056
  71.7294862  66.5887131  31.4846330  70.9650745  66.4213313  31.5284737
  68.2705808  73.4436101  23.5035187  68.0506104  73.1533455  24.2961854
  68.0500330  72.7851056  22.9753100  68.2053402  73.3035809  23.5424096
  67.1822755  65.5309417  25.7690889  66.8936004  64.9046888  26.3036616
  68.0506103  65.4729705  25.8355569  67.2683007  65.4296961  25.8581843
  77.9700653  60.6744201  26.0872871  77.6265419  59.9534536  26.4380120
  78.0693696  60.4658052  25.2451229  77.9342696  60.5368404  26.0144551
  67.3855029  67.1704668  21.6933254  68.1400997  67.5517707  21.9068716
  66.7925641  67.6215812  22.1479950  67.4091742  67.2933496  21.7916132
  69.8461696  59.1267509  36.8190466  69.0361472  59.4325288  36.7080309
  70.3236383  59.8473091  36.9343050  69.7965175  59.2782110  36.8197537
  68.7053255  68.3413230  27.0673369  68.1834009  68.4813521  27.7525234
  69.0927276  67.5823894  27.2575487  68.6856956  68.2498753  27.1974446
  65.6944439  58.3919038  21.1368324  65.4069235  58.0220309  20.4000271
  66.3814908  58.8613894  20.8752029  65.7533337  58.4066008  20.9883400
  70.1319581  65.3717249  22.4654860  69.9362364  65.9791983  21.8715163
  70.3553927  64.6785193  21.9846534  70.1354222  65.3594774  22.3070941
  68.5298111  62.2571987  22.5835729  69.2520763  62.4213145  22.1239535
  68.0506104  62.9781651  22.4775069  68.5661842  62.3870216  22.5001343
  76.4891619  58.5935785  27.9632414  75.6502719  58.6197064  27.7270677
  76.5595986  59.2406521  28.5437760  76.3760012  58.6931911  28.0141531
  66.1805728  64.6630059  31.6889869  66.6926825  64.9414312  31.0398628
  65.8942070  65.4019353  32.0552682  66.2140591  64.8132413  31.6479747
  74.9360897  55.4921162  22.6960030  75.6387250  55.2928911  22.2179988
  74.6705086  54.7197105  23.0028873  75.0007529  55.3484128  22.6705471
  63.2672634  59.1700251  21.9853605  63.3688770  59.9726412  22.3134581
  64.0628521  58.9687587  21.6876686  63.4000540  59.2586150  21.9888960
  69.6989453  56.7556448  31.7490910  69.5072650  56.7711582  32.5990334
  70.5488049  56.9520122  31.7257565  69.7965175  56.7870799  31.8714205
  64.0836366  59.2847429  29.7274727  63.9421858  58.4331370  29.8519235
  64.3676930  59.3276090  28.9036933  64.1044212  59.1647179  29.6242351
  74.2374959  61.1214519  23.8719215  73.9909673  61.0410270  24.7056004
  74.5660082  60.3367987  23.6781742  74.2496202  60.9940785  23.9666738
  76.4701092  64.1294254  33.9128378  76.4649131  63.2574070  33.9170804
  77.1762086  64.3282423  33.4397834  76.5746096  64.0298128  33.8435413
  70.1971986  63.8571238  33.2842198  70.3415362  64.4372446  32.6485308
  70.5447634  64.2347534  33.9892053  70.2699447  63.9991942  33.2941193
  72.3691903  63.0561406  31.0667330  71.6215217  63.2492421  30.6615608
  72.5233428  62.2306626  30.8291451  72.2814331  62.9626518  30.9712735
  69.2699741  72.0474010  30.1503225  69.4189305  71.4876925  29.4976629
  70.0499743  72.1266011  30.5335744  69.4073834  71.9759575  30.1100174
  72.6093680  56.9511957  31.9562733  73.0666294  57.6835931  32.0835526
  72.6850009  56.5278422  32.7149989  72.6884650  56.9969195  32.0863810
  64.8526671  57.1977777  33.0452177  64.3168861  56.5858135  33.3612944
  64.9144436  57.7725913  33.6985844  64.7822304  57.1924704  33.1887604
  77.0821006  50.1301832  25.8256576  77.2004574  50.5878295  25.0923879
  76.9083182  49.3247093  25.5392794  77.0740177  50.0795604  25.6757510
  70.4876058  58.9414061  28.8004557  69.6972133  58.7605521  29.1221893
  70.8836681  58.1641013  28.7834852  70.4292934  58.8001522  28.8457106
  75.8719744  66.5756491  26.5264003  75.1964746  66.3441723  27.0277390
  75.8812120  65.9677674  25.9006108  75.7738249  66.4515416  26.5080156
  73.0013888  61.4174320  33.2828056  72.9373030  62.2784276  33.1548193
  73.1411076  61.1006313  32.4823608  73.0129358  61.4974487  33.1456269
  71.6832982  64.1106459  27.4244259  71.2595231  64.3110958  26.6883278
  71.5077837  63.2635307  27.5368559  71.5943863  64.0155241  27.3317949
  66.9715427  64.6058511  22.8572232  67.1280046  64.5405313  23.7128224
  67.3116020  65.3807063  22.6450911  67.0448662  64.7107709  22.9526826
  73.5094572  63.9816394  21.7265595  74.0510117  63.4786775  22.1904216
  73.8241131  63.9281589  20.9155080  73.6358969  63.8995815  21.6749407
  63.5449689  61.7893461  23.1732999  63.9248654  62.2078006  22.5093266
  62.9705054  62.3706917  23.4801842  63.5161014  61.9371320  23.1209740
  76.8222929  60.4841764  32.7171202  76.0099611  60.1767654  32.7984375
  77.2812864  60.0040764  33.2813915  76.7703314  60.3678256  32.8125797
  74.0498570  51.9852634  26.7675238  73.1792128  51.9591356  26.7208548
  74.3038911  51.8129827  25.9501084  73.9592130  51.9562778  26.6395375
  73.9176437  61.8901835  37.4999905  74.3876068  62.5143952  37.8867779
  73.9638317  61.2218811  38.0593119  73.9944313  61.8836516  37.6399976
  71.0747710  53.9958863  28.2248709  70.5586199  53.3039054  28.3500288
  70.5141639  54.6629640  28.1711307  70.9154224  53.9922120  28.2354775
  73.1439944  54.5351823  30.0541561  72.7571697  54.5600854  30.8355091
  72.6572881  53.9693502  29.6016078  73.0152453  54.4547574  30.1029465
  72.8097086  51.4218808  32.3451821  73.4390204  51.9579108  32.0672891
  72.9782948  51.3296167  33.1965387  72.9274880  51.4880171  32.4300349
  72.6111000  56.2090003  34.6178233  73.4384430  55.9375152  34.6736847
  72.6318846  57.0050845  34.9742051  72.7363850  56.2869757  34.6793416
  67.1880490  63.3553866  27.8048493  66.3468497  63.2557740  28.0127387
  67.3970498  64.1249346  28.1562814  67.0945183  63.4545909  27.8875808
  64.6656057  60.9773403  25.6333244  64.2712755  61.0516415  24.8583354
  64.1096174  61.3631349  26.1841606  64.5258870  61.0455177  25.6000904
  76.3021004  53.9554697  25.3137123  76.5070597  53.8877005  26.1594120
  75.9747428  54.7613518  25.2458300  76.2836252  54.0640637  25.4296778
  70.9997155  61.2835265  27.0546091  70.6960293  60.7291253  27.6556498
  70.2976576  61.4627475  26.5674125  70.8513365  61.2280047  27.0715796
  70.0563252  58.5935785  21.6190793  70.3322987  57.8754697  21.2068360
  70.6561922  59.1920705  21.4111899  70.1856517  58.5756156  21.5271554
  69.0615506  68.4984986  31.7618189  68.9535861  68.5087048  32.6280247
  69.2711288  69.3239766  31.5723142  69.0765617  68.6226061  31.8622280
  73.5573773  56.2649302  19.8937388  74.0117519  56.4359863  20.6185232
  74.0313818  55.6517413  19.4935163  73.6942093  56.2000187  19.9411149
  67.0789298  65.7497628  29.2240126  66.4877231  66.3907126  29.1943141
  67.8410322  66.1735245  29.1971426  67.1037559  65.9073467  29.2155273
  67.4749921  56.9099626  29.8908144  67.9351402  56.9838555  30.6283268
  67.5206028  57.7080880  29.5407965  67.5500476  57.0393773  29.9480900
  69.1233271  57.5766321  34.4580171  68.7318836  56.9299668  34.8935949
  69.2919133  58.1677756  35.0774426  69.0904181  57.5680589  34.6142877
  70.8986793  62.9691837  20.9982395  71.6428838  63.3566113  21.2365345
  71.0447489  62.1249262  21.1622883  71.0297378  62.9022309  21.0576365
  72.8166368  54.7642096  26.0314256  71.9702413  54.9364903  25.9055606
  72.8137501  53.9591439  26.3680085  72.6913518  54.6703124  26.0625383
  73.8864669  58.5417310  26.8976314  73.4124623  58.0159072  27.4081625
  74.2582804  57.9946783  26.3291176  73.8714558  58.3833307  26.8891461
  64.2637699  60.5388817  32.2659860  65.1263312  60.4384526  32.1797190
  63.9329482  59.9583526  31.7045432  64.3422895  60.4380443  32.1705266
  75.8148168  59.4353865  19.9602068  75.2871187  59.5182608  19.2707777
  76.2743876  60.1771736  19.9566713  75.8050019  59.5574527  19.8576763
  67.6239485  59.3631266  28.9270278  66.9992555  59.3749658  28.3196231
  67.2885080  59.8391441  29.5761518  67.4824977  59.4349783  28.9326847
  67.8081233  57.7056384  14.9842963  67.4594038  58.3576109  15.4474513
  67.3277679  57.6913497  14.2566834  67.6851477  57.7999438  14.9454054
  64.3365160  67.4231726  30.3674043  63.8065085  66.7324165  30.4169017
  64.6090254  67.4141911  29.5386751  64.2989883  67.3198858  30.2521458
  74.5371406  64.8654970  30.3412414  73.9228399  64.3213021  30.6361049
  75.0538691  64.3519207  29.8618230  74.5227068  64.7091379  30.3136642
  73.7767703  65.9359240  28.0756713  73.3495311  65.3108959  27.6422148
  73.7692647  65.6534162  28.9015720  73.7126844  65.8012021  28.1336540
  66.8930230  60.9724413  31.1445147  67.0523717  60.2167738  31.5496869
  66.7123124  61.5215353  31.7985884  66.8895589  60.9418227  31.3007853
  74.8350533  53.1385649  31.6995936  74.3391094  53.3349323  31.0087503
  75.5919595  53.5378317  31.5284738  74.8737358  53.2263383  31.5716073
  72.1053413  56.8127995  28.2899247  72.1295900  56.2788107  27.6012027
  72.3564886  56.3045304  28.9524837  72.1463331  56.6588899  28.2863891
  59.6161002  64.0959490  27.7242391  59.5104452  64.0506334  26.8594475
  58.8661222  64.4413270  28.0056676  59.4896605  64.1400398  27.6379721
  68.3854735  55.5398813  27.6704991  68.4253106  56.0408020  28.3839698
  67.5604400  55.6309207  27.4010914  68.2694261  55.6280629  27.7355529
  70.5684348  65.1059553  35.7725286  69.7179978  65.2431267  35.9082931
  70.7312475  64.3723331  36.2172987  70.4668211  65.0173654  35.8580885
  69.8069098  62.0559323  29.9678890  68.9761028  62.2233141  29.7614138
  69.7520615  61.6795274  30.7527775  69.6758513  62.0249054  30.0527418
  67.6152882  55.5468216  35.6035301  68.2405585  55.0030349  35.8764733
  67.1603361  55.0663133  35.0343091  67.6401142  55.3957697  35.5596895
  68.1805142  60.3314915  20.4969008  68.3208103  60.8287379  21.1997649
  68.6787675  59.6301209  20.6383221  68.2746223  60.3016893  20.6220587
  68.2105364  61.1982026  17.8261585  68.8450444  61.7942451  17.7611046
  68.2930975  60.8985483  18.6407455  68.3161915  61.2422934  17.9364671
  69.7884347  57.1296001  17.8007027  70.1100188  56.6499083  17.1466289
  70.0511291  57.9395647  17.6097838  69.8750373  57.1785899  17.6762519
  73.0181320  68.1514875  31.3205843  72.5106411  68.7050722  31.7646473
  72.7207966  68.2123165  30.5024617  72.8986205  68.2421186  31.2654299
  75.1843502  56.5168195  30.1630506  75.6098574  56.0640721  29.5514032
  74.5700495  55.9628266  30.4395293  75.1572148  56.3682171  30.1135531
  64.7158352  63.3949866  21.0951131  65.2250582  63.9914374  21.4762436
  65.1892625  63.1275840  20.4127550  64.8601728  63.4435682  21.0505653
  73.6237725  52.9883295  23.5721083  72.9806043  52.8380941  24.1406221
  73.2837132  52.7425640  22.8070187  73.4782802  52.9295417  23.5424098
  78.3765199  57.3998605  25.9041464  78.7292809  56.9728328  26.5787263
  77.5180001  57.3149449  26.0342541  78.3014644  57.3243346  26.0236475
  67.0748884  60.0306125  23.9624311  66.3560873  60.4470257  24.2297175
  67.4461246  60.5960364  23.4115949  67.0240816  60.1755406  23.9207118
  76.3748465  60.6633974  29.8526307  76.3546392  60.4817269  30.7061086
  76.4227666  61.5345992  29.8285890  76.3783106  60.7650512  29.9749601
  74.3194795  67.2521166  35.7774783  74.2790650  66.6070843  35.1919939
  75.1318113  67.1957783  36.0900195  74.4337948  67.1480133  35.7371732
  72.8495458  59.0704125  19.2997690  72.2560298  59.3921121  18.7482258
  72.8870736  58.2245220  19.0918797  72.7669848  58.9928453  19.1880462
  75.7253275  59.0283629  22.7299441  75.4966968  59.0516331  21.8877799
  75.9851351  58.2041096  22.8494451  75.7299463  58.9099709  22.6224638
  70.0072503  60.8818102  32.3324541  69.4951407  60.2739285  32.6909572
  69.8352000  61.5974695  32.7998517  69.9062141  60.8981402  32.4540765
  64.8538218  59.3255678  34.9826903  64.6840808  59.9857052  34.4375109
  64.4104168  59.5362239  35.7039392  64.7637552  59.4541660  35.0088532
  68.7798038  57.5660176  24.0253636  69.2555404  57.9277255  23.3903818
  68.2786637  58.2216643  24.3053779  68.7763397  57.7154364  23.9730377
  73.8841574  58.8042347  34.7726796  74.4413004  58.5756156  34.1405262
  73.5602639  59.5648013  34.4962009  73.9187984  58.8826184  34.6383294
  61.7540283  62.2302543  30.2415393  61.2067002  61.5603189  30.3596261
  62.5432661  61.8632391  30.3058860  61.7892466  62.0767530  30.2684093
  71.6024691  61.8910000  35.7378804  72.3536018  62.2061677  36.0518358
  71.7947268  61.6889171  34.9112725  71.7416105  61.9077382  35.6622199
  70.8224691  59.7101375  17.3927020  71.2023656  59.7281005  16.6078135
  70.0817287  60.1555364  17.2717868  70.7693528  59.7783150  17.2590589
  78.4509981  58.0183567  22.9802599  78.4504208  57.8632223  23.8386875
  78.2466161  58.8646554  22.9243985  78.4209759  58.1204187  23.0990538
  60.5127252  61.4423351  27.3961416  60.3349013  60.9899960  28.1216331
  60.2246274  62.2449512  27.5799893  60.4440205  61.4945909  27.5304918
  76.1750833  62.6981068  26.6338806  76.6704499  61.9804063  26.5942826
  75.3650609  62.3951866  26.5193293  76.1294727  62.5478715  26.6112532
  62.2499722  63.9751075  24.5083175  61.3845242  63.9636765  24.3965946
  62.3498538  63.7881298  25.3554314  62.1373889  63.9457136  24.6172119
  78.2402652  65.4484756  29.3215935  78.6657724  64.9259178  28.7686360
  77.8759572  66.0465593  28.8004558  78.2489255  65.4594983  29.1624944
  67.8756732  73.7448973  28.0813280  68.1903291  74.5585362  28.0891062
  68.2850145  73.3599192  28.7495439  67.9824830  73.8077676  28.1817372
  74.8281252  69.1619020  25.6517092  75.2992430  69.8759283  25.8207077
  75.1641430  68.5617770  26.1876962  74.9476367  69.1790484  25.7549468
  71.7450747  53.9346491  32.6075187  71.8778652  53.1377484  32.9356162
  72.1295899  54.4612894  33.1873463  71.8207075  53.8946407  32.7418690
  75.4655198  68.9536954  32.4144785  74.9176144  68.3294838  32.1464850
  75.9268227  69.1431226  31.6988864  75.4522407  68.8896004  32.2695216
  74.8183102  50.8576817  29.2056280  74.0129065  50.7474546  29.5224118
  74.6889837  50.9589273  28.3486146  74.6803235  50.8560487  29.1264321
  78.2749062  57.0222309  29.7995977  77.6912051  57.5231515  29.3873544
  78.5953356  56.5151865  29.1660300  78.2362238  57.0214144  29.6454484
  70.8143861  55.9362904  20.0754652  71.6359556  56.1061216  19.8336347
  70.3513512  56.0910165  19.3520949  70.8675024  55.9844637  19.9326296
  69.4039193  53.9305666  30.8553081  69.9483606  53.5896793  31.4457422
  69.4576129  54.7891127  30.9974365  69.4928313  54.0060925  30.9634954
  65.2169752  67.6922082  27.7291889  65.8214609  67.6517916  27.1005709
  65.0097065  68.5393234  27.7595944  65.2758649  67.8110084  27.6408005
  60.4521034  66.6756699  27.5990812  60.3545312  65.8652971  27.9080868
  61.2349904  66.6548493  27.2137080  60.5537171  66.5523789  27.5877675
  36.3073985   6.0324128  13.0304840  36.9511440   6.4737292  13.4200998
  36.6330240   5.2277555  12.9435098  36.4505813   5.9789323  13.0750317
  40.9533360   1.2579491  21.0964511  41.0416706   1.0705632  21.9442721
  41.3823073   0.6116921  20.6969358  41.0295462   1.1342499  21.1636262
  38.5203820   0.5410651  20.0782173  37.9574655   0.1283261  20.6021834
  39.2824843   0.4663557  20.4975316  38.5498268   0.4688052  20.2175173
  41.0653419   0.6888510  23.7608295  41.8493836   0.8019358  24.1264037
  40.8650014  -0.1370353  23.9566980  41.1519445   0.5835230  23.8442681
  41.2223813   2.5998612  17.4074750  40.4239058   2.3598112  17.6648619
  41.6709824   2.6513005  18.1541798  41.1698424   2.5721004  17.5559674
  36.0452814   2.4296217  17.0843272  36.1942378   1.8699133  16.4316676
  36.8252816   2.5088219  17.4675790  36.1826908   2.3581782  17.0440221
  38.5706115   2.6010860  18.3627762  38.4949786   1.9319670  18.9178551
  38.4995974   3.3028648  18.8768429  38.5486721   2.6055767  18.5204611
  37.9597749   6.0079180  16.8205763  38.4493679   5.3089969  16.6381428
  37.3881981   5.7103050  17.4081821  37.9482279   5.8605403  16.8806804
  35.8368579  -1.1192807  18.6958235  35.7288934  -1.1090745  19.5620293
  36.0464361  -0.2938026  18.5063189  35.8518690  -0.9951732  18.7962327
  43.6131888   1.5829147  13.5912197  43.4151576   2.0719962  12.8968409
  42.9919599   1.7870389  14.1696331  43.4919452   1.6845685  13.5735421
  39.7934393  -1.4662917  18.2545889  39.2859484  -0.9127070  18.6986520
  39.4961040  -1.4054627  17.4364664  39.6739278  -1.3756606  18.1994346
  39.0376879   3.4661641  15.1602896  38.8142533   2.7080470  15.5286923
  38.5486722   3.4959662  14.4383336  38.9320328   3.3583865  15.1079637
  41.0520630   2.8452184  13.3663598  40.6536913   2.9554455  12.5984418
  40.4371849   3.0534251  13.9490157  40.9019519   2.8925752  13.3394897
  34.6509805   4.1271181  15.0153327  34.9656364   4.9407569  15.0231109
  35.0603219   3.7421399  15.6835486  34.7577903   4.1899883  15.1157419
  43.6911309   1.1542541  24.7649211  43.8008275   0.3651101  25.1205958
  44.0202206   1.0648477  23.9623549  43.7563715   1.0248394  24.6991602
  41.8066597   0.3410234  15.8794173  42.6264971   0.1973200  16.1410468
  41.5260675   0.9656433  16.4210611  41.8863341   0.4120586  15.9982112
  51.4779933   7.0850737  13.5989980  50.6217828   7.2459235  13.6499096
  51.5247586   6.2142801  13.6195041  51.3579044   6.9801539  13.6096046
  45.8621072  16.6213455   9.3627211  45.1103972  16.2428993   9.1343256
  46.3107084  16.6531889   8.6146021  45.8170739  16.5699062   9.2184713
  54.7873649  13.3537263  23.2050436  55.4940416  12.8589293  23.3337370
  54.9761585  13.7946344  22.4753094  54.9201555  13.3455613  23.1159481
  51.3146032  17.0438824   4.7912758  50.9797401  17.7215746   4.3556980
  51.8272903  16.6544136   4.2029630  51.3411613  17.0863403   4.6399550
  50.8550324  18.9953093  10.7323870  51.2389703  19.5639992  10.1928645
  50.7909465  18.2702603  10.2529686  50.9023751  18.9728557  10.5817732
  54.3231754   9.1442781  16.2421631  54.8687714   9.8227868  16.3015601
  54.2648630   9.0030242  15.3823213  54.3947668   9.2234783  16.1233692
  47.4405829  16.6331847  11.6289984  47.5416191  15.8232201  11.9387111
  46.8447574  16.5388793  10.9989662  47.3678367  16.4996875  11.5816222
  56.0996822  10.5727388   7.1155359  55.9836348  11.3235074   7.5447497
  56.8952709  10.3151341   7.3651446  56.2001412  10.6462235   7.2159451
  47.2806568  21.5509436  13.0304840  47.9244024  21.9922600  13.4200998
  47.6062824  20.7462862  12.9435098  47.4238397  21.4974631  13.0750317
  40.6370873  12.6552134  11.2542317  40.4021057  11.8219786  11.1474586
  40.7756514  12.9356799  10.4403518  40.6226535  12.5735637  11.1184672
  42.9360960   4.8237864  14.1526625  42.3165992   4.2330511  13.9836640
  42.8344824   5.4149299  13.5190948  42.8298636   4.8241947  14.0331615
  47.9827148  14.5621411   8.4024701  48.3042989  15.1026618   7.7986009
  48.6299244  13.9918182   8.5346991  48.1253203  14.5580586   8.3331737
  50.0328856   6.5637406   8.4859088  50.7309021   6.7425534   8.9780551
  50.3481188   6.0407745   7.8629477  50.1824193   6.5131178   8.4661098
  42.6630093   8.3690146  16.3970194  42.5388790   8.9552591  17.0320013
  43.3148378   7.8750342  16.6982469  42.7403743   8.3828950  16.5356123
  50.2216791  12.9507851   8.4738880  50.6610427  12.3424952   8.9193652
  50.0721454  12.5715224   7.7024345  50.2638257  12.8046322   8.4258047
  47.6888434  11.5451863  15.6757705  48.3337437  11.0524306  15.3568654
  47.9290211  11.6876650  16.5023783  47.8199019  11.4929305  15.7507238
  50.2274526  14.3906769  15.3264598  50.5097769  13.5958175  15.1051353
  50.9560686  14.8687356  15.3469659  50.3764089  14.3441366  15.2967613
  48.2055720   1.9329803  12.5680363  47.8759050   2.3840946  11.8984061
  47.5300721   1.8545966  13.1153369  48.0566156   1.9880938  12.5503586
  53.8226128  11.3035032   5.4269649  53.7377423  12.1595999   5.5719218
  54.3110511  11.0279356   6.0951808  53.8815025  11.3892354   5.5471730
  54.7544561   7.9219827   6.9267384  54.2256033   8.1379460   7.5864690
  55.2769581   8.6155965   6.8468353  54.7533014   8.0562963   7.0122983
  60.2092614  13.4966131  12.3000428  59.3790317  13.7076775  12.4633845
  60.1601866  12.6703186  12.0242712  60.0799349  13.4055737  12.2837794
  42.1988197  17.5337804  12.5298523  41.7155776  18.2588294  12.5058107
  43.0111516  17.8313934  12.6408681  42.2478945  17.6840158  12.5425803
  48.2702352  16.3269985  15.1348338  47.7529293  15.9677400  14.5309646
  48.9676743  15.8032160  15.1454404  48.2967933  16.1967673  15.0478597
  51.9265944  16.7764799  21.0964511  52.0149289  16.5890940  21.9442721
  52.3555656  16.1302229  20.6969358  52.0028046  16.6527807  21.1636262
  49.4936403  16.0595959  20.0782173  48.9307238  15.6468569  20.6021834
  50.2557427  15.9848865  20.4975316  49.5230852  15.9873360  20.2175173
  45.0532395  18.0493980  12.6818803  45.7552974  17.5345969  12.7391560
  44.9729878  18.3768132  13.4865678  45.1456155  18.0208207  12.8091595
  59.7046572   6.1436532  16.0950850  58.8674993   6.2138719  16.3298444
  59.6734803   6.1461026  15.2225152  59.5764855   6.1546759  16.0010398
  46.1011301   8.2869567  21.8099218  46.2731805   8.1775462  22.6584500
  46.6380659   8.9323973  21.5730411  46.2056305   8.3661569  21.9004315
  44.3783170  14.2400332  12.1904411  45.2172070  14.4723265  12.2378173
  44.4094939  13.3704644  12.1211447  44.5064888  14.1457279  12.1869056
  45.0035873  14.6601208  16.4917717  45.5434098  14.5172339  17.1621089
  44.3205819  15.0597958  16.8601743  44.9828027  14.6980878  16.6452139
  54.4276758  10.3392208  11.6862741  55.1834273  10.7723723  11.7251650
  54.5339083   9.6896978  12.2597377  54.5546929  10.3069692  11.7760767
  57.4656929  14.1665485  12.4365144  57.0292161  14.1702228  13.1924116
  57.1319845  14.8470984  12.0044722  57.3519549  14.2677941  12.4845977
  52.0386003  16.2073818  23.7608295  52.8226419  16.3204666  24.1264037
  51.8382597  15.3814955  23.9566980  52.1252028  16.1020538  23.8442681
  40.4073018  10.8801498  16.6452138  40.1411434  10.0640615  16.8043129
  40.4211582  10.9254654  15.7747654  40.3697741  10.7658403  16.5405620
  45.1571625   4.4179877  19.2919146  44.4643421   3.9476856  19.5379878
  45.7731952   4.1918181  19.8660853  45.1456155   4.3147008  19.4128299
  52.1956396  18.1183920  17.4074750  51.3971642  17.8783420  17.6648619
  52.6442408  18.1698313  18.1541798  52.1431007  18.0906311  17.5559674
  60.6001275  10.8846405  11.3284781  61.2617710  10.3237074  11.2280690
  59.9592687  10.3898436  11.6537473  60.6030143  10.7282814  11.3617122
  51.4878083  14.1816537   3.6365705  51.9029232  13.8501561   2.9450200
  50.6570013  13.9485439   3.5085841  51.4266092  14.0987793   3.5156552
  40.8166432  11.6660278  13.9263883  40.6342005  11.6407164  13.0736175
  41.5516101  12.1359216  13.9652791  40.8980496  11.7321640  13.8061801
  56.8866106  11.9011788  11.0696770  57.1221695  12.0456987  10.2423621
  57.0355670  12.6654196  11.4628284  56.9431909  12.0350842  11.0060374
  43.8812184   8.3845281  20.4345991  44.6052156   8.3698311  20.9210886
  43.9828320   9.0940636  19.9367960  44.0030393   8.4869984  20.4324778
  58.7156563  10.7413454   8.9066374  59.0464780  11.2741094   8.3006469
  59.2889651  10.7952341   9.5628325  58.8490242  10.8283022   8.9144156
  51.2557133  11.8644365  25.2994938  50.4630114  12.1787877  25.4847558
  51.3706060  12.0795834  24.4615723  51.1552544  11.9428202  25.2033273
  53.9288452   8.5878356   9.5889954  54.0235306   9.3267650  10.0429580
  53.3047296   8.1595832  10.0224519  53.8497482   8.6339677   9.7198102
  52.1840926  11.7664569  20.2380235  52.7579787  11.1291813  20.3928799
  52.1055730  11.7668651  19.3689893  52.2574161  11.6729680  20.1326646
  40.7837342   8.5453778  14.0762949  41.3610845   8.4090229  14.7155195
  40.0851404   8.0889563  14.3308534  40.7658364   8.4576045  14.2085239
  47.5404644  10.1987834  12.2901432  47.2823889   9.3659569  12.2632732
  47.5953127  10.4245447  11.4493933  47.5104422  10.1085605  12.1621569
  46.5139357   7.7525597  12.7766327  45.9388948   7.9117765  13.4130288
  46.1375033   7.1161006  12.3134778  46.3742169   7.6823409  12.8020886
  50.1812645   6.2248946  17.6358706  49.7927078   5.8003164  16.9810897
  49.5167344   6.4731095  18.1435732  50.0259573   6.1987667  17.6146574
  51.2851583  10.4547550   5.8335513  52.0992222  10.7462443   5.7218284
  51.2210725   9.8007413   5.2593806  51.3954323  10.4012745   5.7324350
  57.5061074  13.1373547  20.2465088  57.2699711  12.3061611  20.1277149
  58.1504303  13.0859154  20.8319932  57.5655744  13.0071235  20.3150982
  47.1559492  13.9269068  10.9607825  47.7933439  13.6880815  11.5059618
  47.5814563  14.1306227  10.2260985  47.3135658  13.9220078  10.9324982
  41.8472134  16.1657404  14.8442128  41.8876279  16.4372255  14.0161908
  42.4066658  16.6899312  15.2599916  41.9355480  16.2833159  14.7834017
  47.9630847   2.4277773  25.0145298  47.6484288   3.1977336  24.7514861
  47.6420780   1.8648029  24.4297525  47.8689766   2.4588042  24.8886648
  58.5297494  12.9217995  16.3093383  58.2243311  13.6546052  16.6706698
  57.8103710  12.5155925  16.0286169  58.3784837  12.9699728  16.3206520
  49.5380964  14.4041490  12.6401611  49.6119972  14.2416662  13.4943461
  50.3550470  14.5931680  12.3962093  49.6697322  14.4078233  12.7299637
  64.2299286   9.5610996  15.6361727  64.1623787   9.5806955  14.7664314
  64.2154949  10.4041323  15.8617398  64.2178043   9.6884731  15.5414204
  43.2986720  14.7499353   9.6696054  42.4724838  14.9961090   9.5430333
  43.3598712  14.6711434  10.5358113  43.1860887  14.7744302   9.7784999
  48.0785549  17.3676234   7.3715084  48.3683848  16.9765215   6.6474311
  48.8089030  17.5492938   7.8120360  48.2292434  17.3370047   7.3297891
  62.0157904   8.3355382  13.9108321  62.5665825   7.7023451  14.1505413
  62.0002019   8.8670775  14.6023826  62.0943100   8.3204330  14.0487180
  48.6680295  12.1693979  18.4568215  48.1691988  12.8809747  18.5353103
  49.4780519  12.4894646  18.4186377  48.7136401  12.3220828  18.4624783
  46.0191465  19.3443616  10.4375234  45.7991760  19.0540971  11.2301901
  45.7985987  18.6858571   9.9093146  45.9539059  19.2043324  10.4764143
  44.9308412  11.4316932  12.7030936  44.6421661  10.8054404  13.2376663
  45.7991760  11.3737220  12.7695616  45.0168664  11.3304477  12.7921890
  55.7186310   6.5751716  13.0212918  55.3751076   5.8542051  13.3720167
  55.8179353   6.3665567  12.1791276  55.6828353   6.4375919  12.9484598
  48.1859421  20.7173006   9.2205926  48.8383479  20.1849448   9.4496953
  47.4885029  20.3641658   9.6073800  48.1790139  20.5862529   9.3118094
  45.1340686  13.0712184   8.6273301  45.8886654  13.4525223   8.8408763
  44.5411298  13.5223327   9.0819997  45.1577399  13.1941011   8.7256179
  56.1799339  13.0377420   8.5636906  56.7457372  13.6970630   8.4795449
  55.5327243  13.3827118   9.0353308  56.1678096  13.1859361   8.6209662
  47.5947353   5.0275024  23.7530513  46.7847128   5.3332804  23.6420355
  48.0722039   5.7480606  23.8683097  47.5450831   5.1789625  23.7537584
  46.4538912  14.2420745  14.0013416  45.9319666  14.3821037  14.6865281
  46.8412932  13.4831409  14.1915534  46.4342613  14.1506269  14.1314493
  52.6505917  15.9816204   7.9873985  52.4092593  15.2484065   7.5801050
  52.8307250  16.5303061   7.3340318  52.6413541  15.9538595   7.8304208
  47.8805238  11.2724764   9.3994907  47.6848020  11.8799498   8.8055210
  48.1039583  10.5792708   8.9186581  47.8839879  11.2602289   9.2410988
  46.2783768   8.1579502   9.5175776  47.0006420   8.3220660   9.0579582
  45.7991761   8.8789167   9.4115115  46.3147498   8.2877731   9.4341390
  54.2377275   4.4943301  14.8972460  53.3988376   4.5204580  14.6610724
  54.3081643   5.1414036  15.4777807  54.1245669   4.5939426  14.9481577
  43.9291384  10.5637574  18.6229915  44.4412481  10.8421828  17.9738675
  43.6427727  11.3026868  18.9892728  43.9626248  10.7139928  18.5819793
  58.1134799   9.7011287  12.1833702  58.0268774   9.8566713  13.0368481
  57.6585279  10.3449363  11.8093107  58.0338056   9.8187042  12.2540809
  47.4475110   2.6563963  18.6830957  47.2558307   2.6719097  19.5330381
  48.2973706   2.8527637  18.6597612  47.5450832   2.6878314  18.8054252
  41.8322023   5.1854944  16.6614773  41.6907515   4.3338885  16.7859281
  42.1162586   5.2283605  15.8376979  41.8529869   5.0654694  16.5582398
  51.9860615   7.0222034  10.8059262  51.7395330   6.9417785  11.6396051
  52.3145738   6.2375502  10.6121789  51.9981859   6.8948300  10.9006785
  55.8808664  13.7305394  14.5946043  55.7423023  14.4286440  15.0994785
  55.1008662  13.5754050  14.2382225  55.7451891  13.8105560  14.6172317
  54.2186749  10.0301769  20.8468425  54.2134788   9.1581586  20.8510851
  54.9247743  10.2289938  20.3737880  54.3231753   9.9305643  20.7775460
  47.9457643   9.7578753  20.2182245  48.0901018  10.3379961  19.5825355
  48.2933291  10.1355050  20.9232099  48.0185104   9.8999457  20.2281240
  50.1177560   8.9568921  18.0007376  49.3700874   9.1499936  17.5955654
  50.2719085   8.1314141  17.7631498  50.0299988   8.8634033  17.9052782
  47.0185398  17.9481525  17.0843272  47.1674961  17.3884441  16.4316676
  47.7985400  18.0273527  17.4675790  47.1559491  17.8767090  17.0440221
  49.5438698  18.1196168  18.3627762  49.4682369  17.4504978  18.9178551
  49.4728557  18.8213956  18.8768429  49.5219305  18.1241075  18.5204611
  50.3579337   2.8519472  18.8902780  50.8151951   3.5843447  19.0175572
  50.4335666   2.4285937  19.6490036  50.4370307   2.8976710  19.0203857
  42.6012328   3.0985292  19.9792224  42.0654518   2.4865650  20.2952991
  42.6630093   3.6733428  20.6325890  42.5307961   3.0932220  20.1227651
  50.2008945  16.6397167   9.1951368  50.9658836  16.3706810   8.8734033
  50.0987035  16.1547177   9.9121431  50.2990441  16.5286731   9.2531196
  48.2361715   4.8421576  15.7344604  47.4457790   4.6613036  16.0561940
  48.6322338   4.0648529  15.7174899  48.1778591   4.7009037  15.7797153
  53.6205401  12.4764006  13.4604050  52.9450403  12.2449239  13.9617437
  53.6297777  11.8685189  12.8346155  53.5223906  12.3522931  13.4420202
  50.7499545   7.3181835  20.2168103  50.6858686   8.1791792  20.0888240
  50.8896733   7.0013828  19.4163654  50.7615015   7.3982002  20.0796316
  55.6222136  15.3329139   5.6914228  55.7041973  16.1396125   5.3675679
  56.1071878  15.3525098   6.4155002  55.7059294  15.4549801   5.7501127
  49.4318639  10.0113975  14.3584306  49.0080888  10.2118474  13.6223324
  49.2563494   9.1642823  14.4708606  49.3429520   9.9162756  14.2657996
  48.9330332  21.5264488  16.8205763  49.4226263  20.8275277  16.6381428
  48.3614565  21.2288358  17.4081821  48.9214862  21.3790711  16.8806804
  44.7201084  10.5066026   9.7912279  44.8765703  10.4412829  10.6468271
  45.0601677  11.2814579   9.5790958  44.7934319  10.6115224   9.8866873
  51.2580229   9.8823910   8.6605642  51.7995774   9.3794291   9.1244262
  51.5726788   9.8289104   7.8495127  51.3844626   9.8003331   8.6089454
  55.1297336  14.0926557  25.7732554  55.9432201  13.8211706  25.9337686
  54.9692302  13.7934097  24.9692750  55.2267284  14.0081483  25.6777960
  49.4266678  15.2741261   5.9445670  49.4959499  14.4155800   6.0838670
  50.2055133  15.4913142   5.6164694  49.5519528  15.1794125   5.9162827
  52.4069498   4.7760214  18.7127942  52.6211468   4.1371128  18.1591296
  51.7903397   5.2206038  18.2835804  52.3474827   4.7470358  18.5678373
  53.8174166  17.6978962  10.1582163  53.4253958  17.3945678   9.4405029
  53.9727238  18.5348052   9.9687117  53.7827756  17.7762799  10.0238660
  41.2935346   7.6900976  10.1073046  41.6734310   8.1085521   9.4433313
  40.7190710   8.2714432  10.4141889  41.2646670   7.8378835  10.0549787
  54.5708586   6.3849279  19.6511249  53.7585268   6.0775170  19.7324422
  55.0298521   5.9048279  20.2153961  54.5188971   6.2685772  19.7465843
  53.9813841  14.2628951  10.0988194  53.6228495  14.4343594  10.8752226
  53.4952551  14.7242157   9.5416192  53.8572538  14.3567922  10.1313463
  51.6662094   7.7909351  24.4339952  52.1361725   8.4151467  24.8207826
  51.7123974   7.1226326  24.9933166  51.7429969   7.7844031  24.5740023
  55.1418580  15.1532847  21.0455394  55.7798301  14.6593043  20.7117851
  54.4992672  15.0810248  20.4607621  55.1412807  15.0691856  20.9097749
  56.8675580   7.0021993  15.6121310  56.4403188   6.9148342  14.8569410
  56.2301633   7.1099769  16.1976154  56.7105187   7.0054653  15.5866752
  55.1972837  15.8452655  17.6860751  55.9865215  15.4941720  17.8062833
  55.3716434  16.6589044  17.4237385  55.3393118  15.9138513  17.6648619
  44.9366147   9.2561381  14.7388540  44.0954154   9.1565255  14.9467434
  45.1456155  10.0256862  15.0902861  44.8430840   9.3553425  14.8215855
  42.4141714   6.8780918  12.5673291  42.0198412   6.9523930  11.7923400
  41.8581831   7.2638865  13.1181653  42.2744526   6.9462693  12.5340951
  48.7482812   7.1842780  13.9886138  48.4445949   6.6298769  14.5896545
  48.0462233   7.3634990  13.5014172  48.5999022   7.1287563  14.0055843
  46.8101163  14.3992501  18.6958235  46.7021518  14.4094563  19.5620293
  47.0196944  15.2247282  18.5063189  46.8251274  14.5233576  18.7962327
  44.8274955  11.6505144  16.1580173  44.2362888  12.2914642  16.1283188
  45.5895978  12.0742761  16.1311473  44.8523216  11.8080982  16.1495320
  45.2235578   2.8107141  16.8248191  45.6837059   2.8846071  17.5623314
  45.2691684   3.6088395  16.4748012  45.2986133   2.9401288  16.8820947
  46.8718927   3.4773836  21.3920218  46.4804493   2.8307183  21.8275995
  47.0404790   4.0685271  22.0114473  46.8389838   3.4688104  21.5482924
  60.9465376  11.4810913  17.1557451  61.0048500  11.9297562  17.9017428
  60.3131844  11.8909726  16.7187531  60.8616672  11.6084648  17.2010000
  54.5864471  17.1014455  13.5912197  54.3884160  17.5905270  12.8968409
  53.9652182  17.3055697  14.1696331  54.4652036  17.2030993  13.5735421
  48.6472450   8.8699352   7.9322442  49.3914494   9.2573628   8.1705392
  48.7933146   8.0256777   8.0962930  48.7783035   8.8029825   7.9916411
  51.6350325   4.4424825  13.8316361  51.1610280   3.9166587  14.3421672
  52.0068461   3.8954298  13.2631223  51.6200214   4.2840822  13.8231508
  42.0123355   6.4396332  19.1999907  42.8748969   6.3392041  19.1137237
  41.6815139   5.8591041  18.6385479  42.0908552   6.3387959  19.1045313
  57.8987056   9.5027201  15.2423142  57.6585279   8.6633616  15.2465568
  58.3779063   9.5827368  15.9663915  57.9339240   9.3908601  15.3497944
  59.8992243   6.2828658  13.1952401  59.6602013   6.2424492  12.3573185
  60.0626144   7.1299810  13.3218122  59.8882546   6.4020743  13.0905883
  56.5038273  10.6678607  19.1257446  57.2272472  10.2151134  18.9468466
  56.2388235  10.9483273  18.3429774  56.5719546  10.6429576  18.9836161
  45.3725141   5.2638781  15.8610325  44.7478212   5.2757173  15.2536278
  45.0370736   5.7398956  16.5101565  45.2310633   5.3357298  15.8666894
  42.0850817  13.3239241  17.3014089  41.5550742  12.6331680  17.3509064
  42.3575910  13.3149426  16.4726798  42.0475539  13.2206373  17.1861505
  53.1170908  13.9064943   6.0251772  53.8405106  14.3723056   5.8816345
  52.6771499  13.9738553   5.2749369  53.1586600  13.9848780   5.8936553
  52.2857063  10.7662486  17.2752461  51.6714056  10.2220536  17.5701096
  52.8024348  10.2526722  16.7958277  52.2712725  10.6098895  17.2476689
  51.5253360  11.8366756  15.0096760  51.0980968  11.2116474  14.5762195
  51.5178304  11.5541678  15.8355767  51.4612501  11.7019536  15.0676587
  44.6415887   6.8731929  18.0785194  44.8009374   6.1175253  18.4836915
  44.4608780   7.4222868  18.7325931  44.6381246   6.8425743  18.2347900
  49.8539069   2.7135510  15.2239294  49.8781557   2.1795623  14.5352074
  50.1050543   2.2052819  15.8864884  49.8948988   2.5596414  15.2203938
  37.3646659   9.9967005  14.6582438  37.2590108   9.9513850  13.7934522
  36.6146879  10.3420786  14.9396723  37.2382262  10.0407913  14.5719767
  46.1340392   1.4406328  14.6045038  46.1738763   1.9415535  15.3179745
  45.3090056   1.5316722  14.3350961  46.0179918   1.5288145  14.6695576
  48.3170005  11.0067068  22.7065332  47.4665635  11.1438783  22.8422977
  48.4798132  10.2730847  23.1513034  48.2153868  10.9181170  22.7920932
  47.5554755   7.9566838  16.9018937  46.7246685   8.1240656  16.6954185
  47.5006272   7.5802789  17.6867822  47.4244170   7.9256570  16.9867465
  45.3638538   1.4475731  22.5375348  45.9891242   0.9037864  22.8104780
  44.9089018   0.9670649  21.9683138  45.3886799   1.2965213  22.4936941
  58.9373587   9.6305018  17.6287996  59.5291427  10.2702269  17.6606194
  59.3732582   8.9328055  17.9180062  59.0892018   9.6223369  17.6768828
  50.7666977  14.0522391  18.2545889  50.2592068  14.6058237  18.6986520
  50.4693623  14.1130681  17.4364664  50.6471862  14.1428702  18.1994346
  53.3774757  17.9685648   6.1849833  52.6604067  17.7946511   5.7197070
  54.0281495  17.7338221   5.6525319  53.3676608  17.9081441   6.0379051
  50.0109462  18.9846949  15.1602896  49.7875117  18.2265778  15.5286923
  49.5219305  19.0144970  14.4383336  49.9052911  18.8769173  15.1079637
  44.8234541   5.9313640  10.8964358  44.1046530   6.3477773  11.1637221
  45.1946903   6.4967879  10.3455996  44.7726473   6.0762922  10.8547165
  54.1234122   6.5641489  16.7866354  54.1032049   6.3824784  17.6401132
  54.1713322   7.4353508  16.7625937  54.1268763   6.6658027  16.9089648
  52.0680452  13.1528681  22.7114830  52.0276306  12.5078358  22.1259986
  52.8803770  13.0965298  23.0240242  52.1823605  13.0487648  22.6711779
  48.6587919  19.2047407  12.6139981  48.2448318  18.5421537  12.2243823
  49.3435293  19.3525266  12.0935675  48.6986291  19.1288065  12.4796478
  52.0253213  18.3637492  13.3663598  51.6269496  18.4739763  12.5984418
  51.4104433  18.5719559  13.9490157  51.8752103  18.4111060  13.3394897
  53.4738932   4.9291145   9.6639488  53.2452625   4.9523846   8.8217846
  53.7337008   4.1048612   9.7834498  53.4785120   4.8107225   9.5564685
  47.7558160   6.7825618  19.2664588  47.2437063   6.1746801  19.6249619
  47.5837656   7.4982210  19.7338563  47.6547797   6.7988917  19.3880811
  42.6023875   5.2263193  21.9166950  42.4326465   5.8864568  21.3715156
  42.1589825   5.4369754  22.6379439  42.5123209   5.3549175  21.9428579
  46.5283694   3.4667691  10.9593683  47.0041061   3.8284771  10.3243864
  46.0272294   4.1224158  11.2393826  46.5249053   3.6161880  10.9070424
  51.6327231   4.7049862  21.7066843  52.1898661   4.4763672  21.0745309
  51.3088296   5.4655528  21.4302056  51.6673641   4.7833699  21.5723340
  39.5025939   8.1310058  17.1755439  38.9552659   7.4610704  17.2936308
  40.2918318   7.7639906  17.2398907  39.5378123   7.9775045  17.2024140
  49.3510348   7.7917516  22.6718850  50.1021675   8.1069192  22.9858405
  49.5432924   7.5896686  21.8452772  49.4901762   7.8084897  22.5962246
  38.2612909   7.3430866  14.3301462  38.0834670   6.8907475  15.0556378
  37.9731931   8.1457028  14.5139940  38.1925862   7.3953424  14.4644965
  53.9236490   8.5988584  13.5678853  54.4190155   7.8811579  13.5282873
  53.1136266   8.2959381  13.4533340  53.8780383   8.4486230  13.5452579
  49.3695102  12.4486397   5.7175857  48.5606424  12.1253070   5.6709167
  49.8770010  11.7419619   5.6504106  49.3244768  12.2967713   5.7006152
  39.9985379   9.8758590  11.4423221  39.1330898   9.8644281  11.3305993
  40.0984195   9.6888813  12.2894361  39.8859546   9.8464651  11.5512166
  55.9888309  11.3492271  16.2555981  56.4143380  10.8266693  15.7026407
  55.6245229  11.9473109  15.7344604  55.9974911  11.3602498  16.0964991
  45.6242389  19.6456489  15.0153327  45.9388948  20.4592877  15.0231109
  46.0335802  19.2606707  15.6835486  45.7310487  19.7085191  15.1157419
  52.5766908  15.0626535  12.5857139  53.0478087  15.7766798  12.7547124
  52.9127087  14.4625286  13.1217008  52.6962023  15.0798000  12.6889515
  54.6643893  16.6727849  24.7649211  54.7740858  15.8836409  25.1205958
  54.9934790  16.5833785  23.9623549  54.7296299  16.5433702  24.6991602
  53.2140855  14.8544470  19.3484832  52.6661801  14.2302353  19.0804897
  53.6753883  15.0438742  18.6328911  53.2008064  14.7903520  19.2035263
  42.9655409  13.5929597  14.6631935  43.5700266  13.5525431  14.0345756
  42.7582721  14.4400749  14.6935991  43.0244306  13.7117600  14.5748052
  52.7799181  15.8595542  15.8794173  53.5997555  15.7158508  16.1410468
  52.4993259  16.4841741  16.4210611  52.8595924  15.9305894  15.9982112
  38.2006691  12.5764215  14.5330859  38.1030969  11.7660486  14.8420915
  38.9835561  12.5556008  14.1477127  38.3022828  12.4531305  14.5217721
  62.4512516  22.6036045  13.5989980  61.5950412  22.7644543  13.6499096
  62.4980170  21.7328109  13.6195041  62.3311628  22.4986847  13.6096046
  56.8353656  32.1398763   9.3627211  56.0836555  31.7614301   9.1343256
  57.2839668  32.1717196   8.6146021  56.7903323  32.0884370   9.2184713
  65.7606233  28.8722571  23.2050436  66.4673000  28.3774601  23.3337370
  65.9494168  29.3131652  22.4753094  65.8934138  28.8640921  23.1159481
  62.2878616  32.5624132   4.7912758  61.9529984  33.2401054   4.3556980
  62.8005486  32.1729444   4.2029630  62.3144197  32.6048711   4.6399550
  61.8282907  34.5138401  10.7323870  62.2122286  35.0825300  10.1928645
  61.7642048  33.7887911  10.2529686  61.8756334  34.4913864  10.5817732
  65.2964337  24.6628089  16.2421631  65.8420297  25.3413176  16.3015601
  65.2381214  24.5215550  15.3823213  65.3680252  24.7420091  16.1233692
  58.4138412  32.1517155  11.6289984  58.5148775  31.3417509  11.9387111
  57.8180157  32.0574101  10.9989662  58.3410951  32.0182183  11.5816222
  67.0729406  26.0912696   7.1155359  66.9568932  26.8420382   7.5447497
  67.8685293  25.8336649   7.3651446  67.1733995  26.1647543   7.2159451
  58.2539152  37.0694744  13.0304840  58.8976607  37.5107908  13.4200998
  58.5795407  36.2648170  12.9435098  58.3970980  37.0159939  13.0750317
  51.6103456  28.1737442  11.2542317  51.3753641  27.3405094  11.1474586
  51.7489097  28.4542107  10.4403518  51.5959119  28.0920945  11.1184672
  53.9093544  20.3423172  14.1526625  53.2898575  19.7515819  13.9836640
  53.8077407  20.9334607  13.5190948  53.8031219  20.3427255  14.0331615
  58.9559731  30.0806719   8.4024701  59.2775572  30.6211926   7.7986009
  59.6031828  29.5103490   8.5346991  59.0985787  30.0765894   8.3331737
  61.0061439  22.0822714   8.4859088  61.7041604  22.2610842   8.9780551
  61.3213772  21.5593053   7.8629477  61.1556777  22.0316486   8.4661098
  53.6362677  23.8875454  16.3970194  53.5121374  24.4737899  17.0320013
  54.2880961  23.3935650  16.6982469  53.7136326  23.9014258  16.5356123
  61.1949375  28.4693159   8.4738880  61.6343010  27.8610260   8.9193652
  61.0454038  28.0900532   7.7024345  61.2370841  28.3231630   8.4258047
  58.6621018  27.0637171  15.6757705  59.3070020  26.5709614  15.3568654
  58.9022795  27.2061957  16.5023783  58.7931603  27.0114613  15.7507238
  61.2007109  29.9092077  15.3264598  61.4830352  29.1143482  15.1051353
  61.9293270  30.3872664  15.3469659  61.3496673  29.8626674  15.2967613
  59.1788303  17.4515111  12.5680363  58.8491633  17.9026254  11.8984061
  58.5033305  17.3731274  13.1153369  59.0298739  17.5066246  12.5503586
  64.7958711  26.8220340   5.4269649  64.7110007  27.6781307   5.5719218
  65.2843095  26.5464664   6.0951808  64.8547609  26.9077662   5.5471730
  65.7277145  23.4405134   6.9267384  65.1988616  23.6564768   7.5864690
  66.2502165  24.1341273   6.8468353  65.7265598  23.5748271   7.0122983
  71.1825198  29.0151439  12.3000428  70.3522901  29.2262083  12.4633845
  71.1334450  28.1888493  12.0242712  71.0531933  28.9241045  12.2837794
  57.6176752  27.3368351   5.7274852  57.0333968  27.8418383   6.1340716
  57.2146848  27.1110738   4.9871444  57.4716056  27.3776600   5.6779877
  53.1720781  33.0523112  12.5298523  52.6888359  33.7773602  12.5058107
  53.9844099  33.3499242  12.6408681  53.2211529  33.2025466  12.5425803
  59.2434935  31.8455293  15.1348338  58.7261877  31.4862708  14.5309646
  59.9409326  31.3217468  15.1454404  59.2700516  31.7152981  15.0478597
  62.8998527  32.2950107  21.0964511  62.9881873  32.1076248  21.9442721
  63.3288240  31.6487537  20.6969358  62.9760629  32.1713115  21.1636262
  60.4668987  31.5781267  20.0782173  59.9039822  31.1653877  20.6021834
  61.2290010  31.5034173  20.4975316  60.4963435  31.5058668  20.2175173
  57.3844257  15.5127399   8.0503310  58.1390225  15.8805716   7.8120361
  57.2071792  15.8866953   8.8182490  57.4698736  15.6225587   8.1288199
  56.0264978  33.5679288  12.6818803  56.7285558  33.0531277  12.7391560
  55.9462461  33.8953440  13.4865678  56.1188739  33.5393514  12.8091595
  70.6779156  21.6621840  16.0950850  69.8407577  21.7324027  16.3298444
  70.6467387  21.6646334  15.2225152  70.5497438  21.6732067  16.0010398
  57.0743885  23.8054875  21.8099218  57.2464389  23.6960770  22.6584500
  57.6113242  24.4509281  21.5730411  57.1788889  23.8846877  21.9004315
  55.7401322  17.9197718   4.7481423  55.5576895  18.1369599   3.9222416
  56.6026935  18.0336731   4.8040038  55.8405911  17.9687616   4.6335910
  55.3515754  29.7585640  12.1904411  56.1904653  29.9908573  12.2378173
  55.3827523  28.8889952  12.1211447  55.4797471  29.6642587  12.1869056
  55.9768457  30.1786515  16.4917717  56.5166682  30.0357646  17.1621089
  55.2938403  30.5783266  16.8601743  55.9560611  30.2166186  16.6452139
  65.4009342  25.8577516  11.6862741  66.1566857  26.2909030  11.7251650
  65.5071666  25.2082286  12.2597377  65.5279512  25.8255000  11.7760767
  68.4389513  29.6850793  12.4365144  68.0024745  29.6887536  13.1924116
  68.1052428  30.3656292  12.0044722  68.3252133  29.7863249  12.4845977
  63.0118586  31.7259126  23.7608295  63.7959003  31.8389974  24.1264037
  62.8115181  30.9000263  23.9566980  63.0984612  31.6205846  23.8442681
  51.3805602  26.3986806  16.6452138  51.1144017  25.5825923  16.8043129
  51.3944166  26.4439962  15.7747654  51.3430324  26.2843711  16.5405620
  68.3586996  16.7264621  14.6794572  69.0012904  16.7962726  15.2656487
  68.6110016  16.0593844  14.1774114  68.4909128  16.6390970  14.6921851
  55.2863349  21.1971891   3.2603896  54.5721526  20.9110070   3.6726329
  55.7707318  21.5368516   3.9010284  55.2522712  21.2053540   3.4159531
  56.1304208  19.9365185  19.2919146  55.4376005  19.4662164  19.5379878
  56.7464536  19.7103489  19.8660853  56.1188738  19.8332316  19.4128299
  63.1688980  33.6369228  17.4074750  62.3704225  33.3968728  17.6648619
  63.6174991  33.6883621  18.1541798  63.1163591  33.6091619  17.5559674
  71.5733859  26.4031713  11.3284781  72.2350293  25.8422382  11.2280690
  70.9325271  25.9083744  11.6537473  71.5762726  26.2468122  11.3617122
  62.4610667  29.7001845   3.6365705  62.8761815  29.3686868   2.9450200
  61.6302596  29.4670747   3.5085841  62.3998675  29.6173101   3.5156552
  51.7899015  27.1845586  13.9263883  51.6074589  27.1592472  13.0736175
  52.5248684  27.6544523  13.9652791  51.8713079  27.2506948  13.8061801
  67.8598690  27.4197096  11.0696770  68.0954279  27.5642295  10.2423621
  68.0088253  28.1839504  11.4628284  67.9164493  27.5536150  11.0060374
  54.8544767  23.9030589  20.4345991  55.5784740  23.8883619  20.9210886
  54.9560904  24.6125944  19.9367960  54.9762976  24.0055292  20.4324778
  69.6889146  26.2598762   8.9066374  70.0197364  26.7926402   8.3006469
  70.2622235  26.3137649   9.5628325  69.8222826  26.3468330   8.9144156
  62.2289717  27.3829673  25.2994938  61.4362697  27.6973185  25.4847558
  62.3438644  27.5981142  24.4615723  62.1285127  27.4613510  25.2033273
  64.9021036  24.1063664   9.5889954  64.9967890  24.8452958  10.0429580
  64.2779879  23.6781140  10.0224519  64.8230066  24.1524985   9.7198102
  63.1573509  27.2849877  20.2380235  63.7312371  26.6477121  20.3928799
  63.0788313  27.2853959  19.3689893  63.2306744  27.1914988  20.1326646
  51.7569926  24.0639086  14.0762949  52.3343428  23.9275537  14.7155195
  51.0583988  23.6074870  14.3308534  51.7390947  23.9761353  14.2085239
  58.5137228  25.7173142  12.2901432  58.2556472  24.8844877  12.2632732
  58.5685711  25.9430755  11.4493933  58.4837006  25.6270913  12.1621569
  63.5938278  17.8201593  12.3905525  62.8894605  17.3310778  12.5489444
  63.6423252  17.8324067  11.5193970  63.4968330  17.7491241  12.2844865
  57.4871940  23.2710904  12.7766327  56.9121531  23.4303073  13.4130288
  57.1107616  22.6346314  12.3134778  57.3474753  23.2008717  12.8020886
  61.1545229  21.7434254  17.6358706  60.7659662  21.3188471  16.9810897
  60.4899927  21.9916403  18.1435732  60.9992157  21.7172975  17.6146574
  47.2328759  22.9150979  10.7910768  47.3189011  22.5382848  11.5724298
  47.8604557  22.5411425  10.3130726  47.3385310  22.8036461  10.8356245
  64.9771590  15.4408883  15.1482690  65.3582102  14.7587054  15.5350564
  64.1734875  15.1518485  14.9658354  64.9148052  15.2975931  15.1786746
  62.2584167  25.9732858   5.8335513  63.0724806  26.2647751   5.7218284
  62.1943308  25.3192721   5.2593806  62.3686906  25.9198053   5.7324350
  68.4793657  28.6558854  20.2465088  68.2432295  27.8246919  20.1277149
  69.1236886  28.6044462  20.8319932  68.5388328  28.5256542  20.3150982
  58.1292075  29.4454376  10.9607825  58.7666022  29.2066123  11.5059618
  58.5547147  29.6491535  10.2260985  58.2868242  29.4405386  10.9324982
  52.8204718  31.6842712  14.8442128  52.8608863  31.9557563  14.0161908
  53.3799242  32.2084620  15.2599916  52.9088064  31.8018467  14.7834017
  58.7694890  24.6656666   5.2982714  59.1540043  24.4464372   6.0499259
  58.5206511  25.4919611   5.4283790  58.7896963  24.7554812   5.4283791
  58.9363431  17.9463081  25.0145298  58.6216872  18.7162644  24.7514861
  58.6153363  17.3833337  24.4297525  58.8422350  17.9773349  24.8886648
  69.5030078  28.4403303  16.3093383  69.1975895  29.1731360  16.6706698
  68.7836294  28.0341233  16.0286169  69.3517420  28.4885036  16.3206520
  60.5113547  29.9226798  12.6401611  60.5852556  29.7601970  13.4943461
  61.3283054  30.1116988  12.3962093  60.6429906  29.9263541  12.7299637
  75.2031870  25.0796304  15.6361727  75.1356370  25.0992263  14.7664314
  75.1887532  25.9226631  15.8617398  75.1910626  25.2070039  15.5414204
  54.2719304  30.2684661   9.6696054  53.4457422  30.5146398   9.5430333
  54.3331295  30.1896742  10.5358113  54.1593471  30.2929610   9.7784999
  56.4895328  16.3353602  10.6291495  55.6217753  16.4076202  10.6949104
  56.7770532  17.1375681  10.8179470  56.4035076  16.4647749  10.6666261
  65.6128216  16.4831462  18.9602816  66.3581808  16.2941272  18.5466242
  65.1965521  17.0089700  18.4016673  65.6613191  16.5333607  18.8167390
  59.0518133  32.8861541   7.3715084  59.3416431  32.4950523   6.6474311
  59.7821614  33.0678246   7.8120360  59.2025017  32.8555355   7.3297891
  72.9890487  23.8540690  13.9108321  73.5398409  23.2208759  14.1505413
  72.9734603  24.3856083  14.6023826  73.0675684  23.8389638  14.0487180
  59.6412878  27.6879287  18.4568215  59.1424572  28.3995055  18.5353103
  60.4513102  28.0079954  18.4186377  59.6868985  27.8406136  18.4624783
  56.9924049  34.8628924  10.4375234  56.7724344  34.5726279  11.2301901
  56.7718571  34.2043879   9.9093146  56.9271643  34.7228632  10.4764143
  55.9040996  26.9502240  12.7030936  55.6154244  26.3239712  13.2376663
  56.7724344  26.8922528  12.7695616  55.9901248  26.8489785  12.7921890
  66.6918894  22.0937024  13.0212918  66.3483659  21.3727359  13.3720167
  66.7911936  21.8850875  12.1791276  66.6560936  21.9561227  12.9484598
  59.1592004  36.2358314   9.2205926  59.8116062  35.7034756   9.4496953
  58.4617613  35.8826966   9.6073800  59.1522722  36.1047837   9.3118094
  56.1073269  28.5897491   8.6273301  56.8619237  28.9710531   8.8408763
  55.5143882  29.0408635   9.0819997  56.1309983  28.7126319   8.7256179
  67.1531923  28.5562728   8.5636906  67.7189955  29.2155938   8.4795449
  66.5059826  28.9012426   9.0353308  67.1410679  28.7044669   8.6209662
  58.5679936  20.5460332  23.7530513  57.7579712  20.8518112  23.6420355
  59.0454623  21.2665914  23.8683097  58.5183415  20.6974933  23.7537584
  57.4271496  29.7606053  14.0013416  56.9052249  29.9006344  14.6865281
  57.8145516  29.0016717  14.1915534  57.4075197  29.6691577  14.1314493
  54.4162680  19.8111862   8.0708371  54.1287476  19.4413132   7.3340318
  55.1033148  20.2806717   7.8092076  54.4751577  19.8258831   7.9223447
  63.6238501  31.5001512   7.9873985  63.3825177  30.7669373   7.5801050
  63.8039834  32.0488369   7.3340318  63.6146125  31.4723903   7.8304208
  58.8537821  26.7910072   9.3994907  58.6580604  27.3984806   8.8055210
  59.0772167  26.0978016   8.9186581  58.8572462  26.7787597   9.2410988
  57.2516351  23.6764810   9.5175776  57.9739003  23.8405968   9.0579582
  56.7724344  24.3974475   9.4115115  57.2880082  23.8063039   9.4341390
  65.2109859  20.0128609  14.8972460  64.3720960  20.0389887  14.6610724
  65.2814226  20.6599344  15.4777807  65.0978252  20.1124734  14.9481577
  54.9023968  26.0822882  18.6229915  55.4145065  26.3607135  17.9738675
  54.6160311  26.8212176  18.9892728  54.9358831  26.2325236  18.5819793
  69.0867383  25.2196595  12.1833702  69.0001357  25.3752021  13.0368481
  68.6317863  25.8634671  11.8093107  69.0070639  25.3372350  12.2540809
  51.9890874  20.5893074   8.9193652  52.0907011  21.3919235   9.2474627
  52.7846761  20.3880410   8.6216732  52.1218780  20.6778973   8.9229007
  58.4207693  18.1749271  18.6830957  58.2290890  18.1904405  19.5330381
  59.2706289  18.3712945  18.6597612  58.5183415  18.2063622  18.8054252
  52.8054606  20.7040252  16.6614773  52.6640098  19.8524193  16.7859281
  53.0895170  20.7468913  15.8376979  52.8262453  20.5840002  16.5582398
  62.9593199  22.5407342  10.8059262  62.7127913  22.4603093  11.6396051
  63.2878322  21.7560810  10.6121789  62.9714442  22.4133608  10.9006785
  66.8541248  29.2490702  14.5946043  66.7155607  29.9471748  15.0994785
  66.0741246  29.0939358  14.2382225  66.7184475  29.3290868  14.6172317
  65.1919333  25.5487077  20.8468425  65.1867371  24.6766894  20.8510851
  65.8980327  25.7475246  20.3737880  65.2964337  25.4490951  20.7775460
  58.9190226  25.2764061  20.2182245  59.0633602  25.8565269  19.5825355
  59.2665875  25.6540358  20.9232099  58.9917687  25.4184765  20.2281240
  61.0910143  24.4754229  18.0007376  60.3433458  24.6685244  17.5955654
  61.2451669  23.6499449  17.7631498  61.0032571  24.3819341  17.9052782
  57.9917981  33.4666833  17.0843272  58.1407545  32.9069749  16.4316676
  58.7717983  33.5458835  17.4675790  58.1292075  33.3952398  17.0440221
  60.5171282  33.6381476  18.3627762  60.4414953  32.9690286  18.9178551
  60.4461141  34.3399264  18.8768429  60.4951889  33.6426383  18.5204611
  61.3311921  18.3704780  18.8902780  61.7884535  19.1028754  19.0175572
  61.4068249  17.9471245  19.6490036  61.4102890  18.4162018  19.0203857
  53.5744912  18.6170600  19.9792224  53.0387101  18.0050958  20.2952991
  53.6362676  19.1918736  20.6325890  53.5040544  18.6117528  20.1227651
  61.1741529  32.1582475   9.1951368  61.9391420  31.8892118   8.8734033
  61.0719619  31.6732485   9.9121431  61.2723024  32.0472039   9.2531196
  59.2094298  20.3606884  15.7344604  58.4190373  20.1798344  16.0561940
  59.6054921  19.5833837  15.7174899  59.1511175  20.2194345  15.7797153
  64.5937985  27.9949314  13.4604050  63.9182987  27.7634546  13.9617437
  64.6030361  27.3870497  12.8346155  64.4956489  27.8708239  13.4420202
  61.7232129  22.8367143  20.2168103  61.6591270  23.6977100  20.0888240
  61.8629316  22.5199136  19.4163654  61.7347599  22.9167310  20.0796316
  66.5954719  30.8514447   5.6914228  66.6774557  31.6581433   5.3675679
  67.0804462  30.8710406   6.4155002  66.6791877  30.9735109   5.7501127
  60.4051223  25.5299282  14.3584306  59.9813472  25.7303782  13.6223324
  60.2296078  24.6828130  14.4708606  60.3162103  25.4348064  14.2657996
  59.9062916  37.0449795  16.8205763  60.3958846  36.3460585  16.6381428
  59.3347148  36.7473665  17.4081821  59.8947446  36.8976019  16.8806804
  55.6933668  26.0251334   9.7912279  55.8498287  25.9598137  10.6468271
  56.0334261  26.7999886   9.5790958  55.7666902  26.1300532   9.8866873
  62.2312812  25.4009218   8.6605642  62.7728358  24.8979599   9.1244262
  62.5459371  25.3474412   7.8495127  62.3577209  25.3188638   8.6089454
  66.1029920  29.6111865  25.7732554  66.9164785  29.3397014  25.9337686
  65.9424886  29.3119405  24.9692750  66.1999868  29.5266791  25.6777960
  60.3999262  30.7926569   5.9445670  60.4692082  29.9341108   6.0838670
  61.1787717  31.0098450   5.6164694  60.5252112  30.6979433   5.9162827
  63.3802082  20.2945522  18.7127942  63.5944051  19.6556436  18.1591296
  62.7635981  20.7391346  18.2835804  63.3207411  20.2655666  18.5678373
  64.7906749  33.2164270  10.1582163  64.3986541  32.9130985   9.4405029
  64.9459822  34.0533360   9.9687117  64.7560339  33.2948107  10.0238660
  52.2667929  23.2086284  10.1073046  52.6466894  23.6270829   9.4433313
  51.6923294  23.7899740  10.4141889  52.2379254  23.3564143  10.0549787
  65.5441170  21.9034587  19.6511249  64.7317851  21.5960478  19.7324422
  66.0031104  21.4233587  20.2153961  65.4921554  21.7871080  19.7465843
  64.9546424  29.7814259  10.0988194  64.5961079  29.9528902  10.8752226
  64.4685135  30.2427465   9.5416192  64.8305121  29.8753230  10.1313463
  62.7716810  13.4045458  13.7015285  61.9010368  13.3784179  13.6548594
  63.0257151  13.2322650  12.8841131  62.6810370  13.3755601  13.5735422
  59.7434790  25.4613425   2.6388428  60.0327314  26.2378307   2.9132002
  59.8306588  24.9502156   3.3402927  59.7989046  25.5005343   2.7830926
  62.6394677  23.3094659  24.4339952  63.1094308  23.9336775  24.8207826
  62.6856557  22.6411634  24.9933166  62.7162553  23.3029339  24.5740023
  59.7965951  15.4151686  15.1588755  59.2804439  14.7231878  15.2840334
  59.2359880  16.0822463  15.1051354  59.6372464  15.4114944  15.1694821
  61.8658184  15.9544646  16.9881608  61.4789937  15.9793678  17.7695138
  61.3791121  15.3886325  16.5356125  61.7370693  15.8740397  17.0369512
  66.1151164  30.6718155  21.0455394  66.7530884  30.1778351  20.7117851
  65.4725255  30.5995556  20.4607621  66.1145390  30.5877164  20.9097749
  67.8408164  22.5207301  15.6121310  67.4135772  22.4333650  14.8569410
  67.2034217  22.6285077  16.1976154  67.6837771  22.5239961  15.5866752
  61.5315326  12.8411632  19.2791868  62.1608444  13.3771932  19.0012938
  61.7001189  12.7488991  20.1305434  61.6493120  12.9072994  19.3640396
  61.3329241  17.6282826  21.5518279  62.1602670  17.3567975  21.6076894
  61.3537087  18.4243668  21.9082098  61.4582091  17.7062581  21.6133462
  66.1705420  31.3637963  17.6860751  66.9597798  31.0127028  17.8062833
  66.3449018  32.1774352  17.4237385  66.3125702  31.4323821  17.6648619
  55.9098731  24.7746689  14.7388540  55.0686737  24.6750563  14.9467434
  56.1188739  25.5442169  15.0902861  55.8163423  24.8738732  14.8215855
  53.3874298  22.3966226  12.5673291  52.9930995  22.4709238  11.7923400
  52.8314414  22.7824172  13.1181653  53.2477110  22.4648001  12.5340951
  65.0239244  15.3747520  12.2477170  65.2288838  15.3069828  13.0934167
  64.6965668  16.1806341  12.1798347  65.0054492  15.4833461  12.3636825
  59.7215395  22.7028088  13.9886138  59.4178533  22.1484077  14.5896545
  59.0194816  22.8820298  13.5014172  59.5731605  22.6472871  14.0055843
  58.7781493  20.0128608   8.5530839  59.0541227  19.2947521   8.1408407
  59.3780162  20.6113528   8.3451946  58.9074757  19.9948979   8.4611601
  57.7833746  29.9177809  18.6958235  57.6754101  29.9279871  19.5620293
  57.9929528  30.7432589  18.5063189  57.7983858  30.0418884  18.7962327
  55.8007538  27.1690451  16.1580173  55.2095472  27.8099950  16.1283188
  56.5628562  27.5928069  16.1311473  55.8255799  27.3266290  16.1495320
  56.1968161  18.3292449  16.8248191  56.6569643  18.4031379  17.5623314
  56.2424268  19.1273703  16.4748012  56.2718717  18.4586596  16.8820947
  57.8451511  18.9959144  21.3920218  57.4537076  18.3492491  21.8275995
  58.0137374  19.5870579  22.0114473  57.8122421  18.9873412  21.5482924
  71.9197960  26.9996221  17.1557451  71.9781084  27.4482870  17.9017428
  71.2864428  27.4095034  16.7187531  71.8349255  27.1269956  17.2010000
  65.5597055  32.6199763  13.5912197  65.3616743  33.1090578  12.8968409
  64.9384766  32.8241005  14.1696331  65.4384619  32.7216301  13.5735421
  59.6205033  24.3884660   7.9322442  60.3647078  24.7758936   8.1705392
  59.7665729  23.5442085   8.0962930  59.7515618  24.3215133   7.9916411
  61.5384609  16.1834919  12.9654303  60.6920654  16.3557727  12.8395653
  61.5355741  15.3784263  13.3020131  61.4131758  16.0895948  12.9965430
  62.6082909  19.9610133  13.8316361  62.1342863  19.4351895  14.3421672
  62.9801045  19.4139606  13.2631223  62.5932798  19.8026130  13.8231508
  52.9855939  21.9581640  19.1999907  53.8481552  21.8577349  19.1137237
  52.6547722  21.3776349  18.6385479  53.0641135  21.8573267  19.1045313
  68.8719640  25.0212509  15.2423142  68.6317862  24.1818924  15.2465568
  69.3511647  25.1012676  15.9663915  68.9071823  24.9093909  15.3497944
  70.8724827  21.8013966  13.1952401  70.6334597  21.7609800  12.3573185
  71.0358728  22.6485118  13.3218122  70.8615130  21.9206051  13.0905883
  67.4770857  26.1863915  19.1257446  68.2005056  25.7336442  18.9468466
  67.2120819  26.4668581  18.3429774  67.5452130  26.1614884  18.9836161
  56.3457725  20.7824089  15.8610325  55.7210795  20.7942481  15.2536278
  56.0103320  21.2584264  16.5101565  56.2043217  20.8542606  15.8666894
  56.5299474  19.1249207   1.9183010  56.1812278  19.7768933   2.3814559
  56.0495920  19.1106320   1.1906881  56.4069718  19.2192261   1.8794101
  53.0583401  28.8424549  17.3014089  52.5283325  28.1516988  17.3509064
  53.3308494  28.8334734  16.4726798  53.0208123  28.7391681  17.1861505
  64.0903491  29.4250251   6.0251772  64.8137690  29.8908364   5.8816345
  63.6504082  29.4923861   5.2749369  64.1319183  29.5034088   5.8936553
  63.2589646  26.2847794  17.2752461  62.6446639  25.7405844  17.5701096
  63.7756931  25.7712030  16.7958277  63.2445309  26.1284203  17.2476689
  62.4985943  27.3552064  15.0096760  62.0713551  26.7301782  14.5762195
  62.4910888  27.0726985  15.8355767  62.4345085  27.2204844  15.0676587
  55.6148470  22.3917237  18.0785194  55.7741957  21.6360561  18.4836915
  55.4341364  22.9408176  18.7325931  55.6113829  22.3611050  18.2347900
  63.5568773  14.5578472  18.6335983  63.0609335  14.7542146  17.9427550
  64.3137835  14.9571140  18.4624785  63.5955598  14.6456206  18.5056120
  60.8271653  18.2320818  15.2239294  60.8514140  17.6980930  14.5352074
  61.0783127  17.7238127  15.8864884  60.8681572  18.0781722  15.2203938
  48.3379243  25.5152313  14.6582438  48.2322692  25.4699157  13.7934522
  47.5879463  25.8606094  14.9396723  48.2114846  25.5593221  14.5719767
  57.1072975  16.9591636  14.6045038  57.1471347  17.4600843  15.3179745
  56.2822640  17.0502030  14.3350961  56.9912501  17.0473453  14.6695576
  59.2902588  26.5252376  22.7065332  58.4398219  26.6624091  22.8422977
  59.4530716  25.7916155  23.1513034  59.1886452  26.4366478  22.7920932
  58.5287339  23.4752146  16.9018937  57.6979268  23.6425964  16.6954185
  58.4738856  23.0988097  17.6867822  58.3976754  23.4441877  16.9867465
  56.3371122  16.9661039  22.5375348  56.9623825  16.4223172  22.8104780
  55.8821602  16.4855957  21.9683138  56.3619383  16.8150520  22.4936941
  56.9023382  21.7507738   7.4309055  57.0426344  22.2480202   8.1337696
  57.4005915  21.0494032   7.5723268  56.9964463  21.7209717   7.5560634
  56.9323605  22.6174849   4.7601631  57.5668684  23.2135274   4.6951093
  57.0149216  22.3178306   5.5747502  57.0380156  22.6615757   4.8704718
  69.9106171  25.1490326  17.6287996  70.5024011  25.7887577  17.6606194
  70.3465165  24.4513363  17.9180062  70.0624602  25.1408676  17.6768828
  58.5102588  18.5488824   4.7347073  58.8318429  18.0691907   4.0806336
  58.7729531  19.3588470   4.5437885  58.5968613  18.5978722   4.6102565
  61.7399560  29.5707699  18.2545889  61.2324652  30.1243545  18.6986520
  61.4426207  29.6315988  17.4364664  61.6204445  29.6614010  18.1994346
  63.9061743  17.9361018  17.0970552  64.3316814  17.4833545  16.4854079
  63.2918736  17.3821089  17.3735340  63.8790388  17.7874994  17.0475578
  53.4376593  24.8142690   8.0291177  53.9468822  25.4107197   8.4102483
  53.9110865  24.5468663   7.3467597  53.5819968  24.8628505   7.9845700
  64.3507341  33.4870956   6.1849833  63.6336650  33.3131818   5.7197070
  65.0014078  33.2523529   5.6525319  64.3409191  33.4266749   6.0379051
  62.3455966  14.4076118  10.5061129  61.7024283  14.2573764  11.0746268
  62.0055373  14.1618463   9.7410234  62.2001043  14.3488240  10.4764145
  66.9355312  22.3635545   9.9291138  66.2646502  22.9065247   9.8004204
  67.6295062  22.8330400   9.6872833  66.9384180  22.5133816   9.8746666
  60.9842046  34.5032257  15.1602896  60.7607700  33.7451086  15.5286923
  60.4951889  34.5330278  14.4383336  60.8785495  34.3954481  15.1079637
  67.0983439  18.8191428  12.8381511  67.4511050  18.3921151  13.5127310
  66.2398241  18.7342272  12.9682588  67.0232884  18.7436169  12.9576522
  55.7967124  21.4498948  10.8964358  55.0779114  21.8663081  11.1637221
  56.1679487  22.0153187  10.3455996  55.7459056  21.5948230  10.8547165
  65.0966705  22.0826797  16.7866354  65.0764633  21.9010092  17.6401132
  65.1445906  22.9538816  16.7625937  65.1001346  22.1843335  16.9089648
  63.0413035  28.6713989  22.7114830  63.0008890  28.0263666  22.1259986
  63.8536353  28.6150606  23.0240242  63.1556189  28.5672956  22.6711779
  59.6320503  34.7232715  12.6139981  59.2180901  34.0606845  12.2243823
  60.3167877  34.8710574  12.0935675  59.6718874  34.6473373  12.4796478
  62.9985797  33.8822800  13.3663598  62.6002080  33.9925070  12.5984418
  62.3837016  34.0904866  13.9490157  62.8484686  33.9296368  13.3394897
  61.5713699  20.4896948   6.2337737  60.9778538  20.8113944   5.6822304
  61.6088977  19.6438043   6.0258843  61.4888088  20.4121276   6.1220509
  64.4471515  20.4476452   9.6639488  64.2185208  20.4709154   8.8217846
  64.7069592  19.6233920   9.7834498  64.4517703  20.3292532   9.5564685
  58.7290744  22.3010926  19.2664588  58.2169647  21.6932108  19.6249619
  58.5570240  23.0167518  19.7338563  58.6280381  22.3174225  19.3880811
  53.5756459  20.7448501  21.9166950  53.4059049  21.4049876  21.3715156
  53.1322408  20.9555062  22.6379439  53.4855792  20.8734483  21.9428579
  57.5016278  18.9852999  10.9593683  57.9773644  19.3470079  10.3243864
  57.0004878  19.6409466  11.2393826  57.4981637  19.1347188  10.9070424
  62.6059814  20.2235170  21.7066843  63.1631244  19.9948980  21.0745309
  62.2820879  20.9840836  21.4302056  62.6406224  20.3019007  21.5723340
  50.4758523  23.6495366  17.1755439  49.9285243  22.9796012  17.2936308
  51.2650901  23.2825214  17.2398907  50.5110707  23.4960353  17.2024140
  60.3242931  23.3102823  22.6718850  61.0754258  23.6254500  22.9858405
  60.5165508  23.1081994  21.8452772  60.4634346  23.3270205  22.5962246
  59.5442931  21.1294199   4.3267067  59.9241896  21.1473828   3.5418182
  58.8035527  21.5748187   4.2057914  59.4911769  21.1975973   4.1930635
  67.1728222  19.4376390   9.9142646  67.1722448  19.2825046  10.7726922
  66.9684402  20.2839377   9.8584031  67.1427999  19.5397011  10.0330585
  49.2345493  22.8616174  14.3301462  49.0567254  22.4092783  15.0556378
  48.9464515  23.6642336  14.5139940  49.1658446  22.9138732  14.4644965
  64.8969074  24.1173892  13.5678853  65.3922739  23.3996887  13.5282873
  64.0868849  23.8144689  13.4533340  64.8512967  23.9671538  13.5452579
  60.3427685  27.9671705   5.7175857  59.5339008  27.6438378   5.6709167
  60.8502594  27.2604927   5.6504106  60.2977352  27.8153021   5.7006152
  50.9717962  25.3943898  11.4423221  50.1063482  25.3829588  11.3305993
  51.0716778  25.2074121  12.2894361  50.8592129  25.3649959  11.5512166
  66.9620893  26.8677579  16.2555981  67.3875964  26.3452001  15.7026407
  66.5977812  27.4658417  15.7344604  66.9707495  26.8787806  16.0964991
  56.5974972  35.1641797  15.0153327  56.9121531  35.9778185  15.0231109
  57.0068386  34.7792015  15.6835486  56.7043070  35.2270499  15.1157419
  63.5499492  30.5811843  12.5857139  64.0210670  31.2952106  12.7547124
  63.8859670  29.9810594  13.1217008  63.6694607  30.5983308  12.6889515
  65.6376477  32.1913157  24.7649211  65.7473442  31.4021717  25.1205958
  65.9667373  32.1019093  23.9623549  65.7028882  32.0619010  24.6991602
  60.4668987  15.3539314  19.5415234  60.5996893  14.5570307  19.8696209
  60.8514140  15.8805717  20.1213509  60.5425316  15.3139231  19.6758737
  64.1873438  30.3729778  19.3484832  63.6394384  29.7487661  19.0804897
  64.6486467  30.5624050  18.6328911  64.1740648  30.3088828  19.2035263
  63.5401342  12.2769640  16.1396327  62.7347306  12.1667370  16.4564165
  63.4108078  12.3782096  15.2826193  63.4021475  12.2753310  16.0604367
  66.9967303  18.4415132  16.7336024  66.4130291  18.9424338  16.3213591
  67.3171597  17.9344688  16.1000347  66.9580478  18.4406967  16.5794531
  59.5362102  17.3555727   7.0094699  60.3577796  17.5254040   6.7676394
  59.0731753  17.5102988   6.2860996  59.5893264  17.4037460   6.8666343
  58.1257434  15.3498489  17.7893127  58.6701847  15.0089616  18.3797469
  58.1794369  16.2083951  17.9314412  58.2146553  15.4253748  17.8975001
  53.9387992  29.1114905  14.6631935  54.5432850  29.0710739  14.0345756
  53.7315305  29.9586057  14.6935991  53.9976890  29.2302908  14.5748052
  63.7531765  31.3780850  15.8794173  64.5730138  31.2343816  16.1410468
  63.4725842  32.0027049  16.4210611  63.8328508  31.4491202  15.9982112
  49.1739275  28.0949523  14.5330859  49.0763553  27.2845794  14.8420915
  49.9568144  28.0741316  14.1477127  49.2755411  27.9716613  14.5217721
  73.4245100  38.1221353  13.5989980  72.5682995  38.2829851  13.6499096
  73.4712754  37.2513417  13.6195041  73.3044211  38.0172155  13.6096046
  67.8086240  47.6584071   9.3627211  67.0569139  47.2799609   9.1343256
  68.2572251  47.6902504   8.6146021  67.7635906  47.6069678   9.2184713
  76.7338816  44.3907879  23.2050436  77.4405584  43.8959909  23.3337370
  76.9226752  44.8316960  22.4753094  76.8666722  44.3826229  23.1159481
  76.2696921  40.1813397  16.2421631  76.8152881  40.8598483  16.3015601
  76.2113797  40.0400858  15.3823213  76.3412835  40.2605399  16.1233692
  69.3870996  47.6702463  11.6289984  69.4881359  46.8602817  11.9387111
  68.7912741  47.5759409  10.9989662  69.3143534  47.5367491  11.5816222
  69.2271735  52.5880052  13.0304840  69.8709191  53.0293216  13.4200998
  69.5527991  51.7833478  12.9435098  69.3703564  52.5345247  13.0750317
  62.5836040  43.6922749  11.2542317  62.3486224  42.8590402  11.1474586
  62.7221681  43.9727415  10.4403518  62.5691702  43.6106253  11.1184672
  64.8826127  35.8608480  14.1526625  64.2631159  35.2701127  13.9836640
  64.7809991  36.4519915  13.5190948  64.7763803  35.8612563  14.0331615
  71.9794023  37.6008022   8.4859088  72.6774188  37.7796149   8.9780551
  72.2946356  37.0778361   7.8629477  72.1289360  37.5501794   8.4661098
  64.6095260  39.4060762  16.3970194  64.4853957  39.9923207  17.0320013
  65.2613545  38.9120958  16.6982469  64.6868910  39.4199566  16.5356123
  72.1681958  43.9878467   8.4738880  72.6075594  43.3795567   8.9193652
  72.0186621  43.6085840   7.7024345  72.2103424  43.8416938   8.4258047
  69.6353601  42.5822479  15.6757705  70.2802604  42.0894922  15.3568654
  69.8755378  42.7247265  16.5023783  69.7664187  42.5299921  15.7507238
  72.1739693  45.4277385  15.3264598  72.4562936  44.6328790  15.1051353
  72.9025853  45.9057972  15.3469659  72.3229257  45.3811982  15.2967613
  70.1520887  32.9700419  12.5680363  69.8224217  33.4211562  11.8984061
  69.4765888  32.8916582  13.1153369  70.0031323  33.0251554  12.5503586
  64.1453365  48.5708420  12.5298523  63.6620943  49.2958910  12.5058107
  64.9576683  48.8684550  12.6408681  64.1944112  48.7210774  12.5425803
  70.2167519  47.3640601  15.1348338  69.6994460  47.0048016  14.5309646
  70.9141910  46.8402775  15.1454404  70.2433100  47.2338289  15.0478597
  73.8731111  47.8135415  21.0964511  73.9614457  47.6261555  21.9442721
  74.3020823  47.1672845  20.6969358  73.9493213  47.6898423  21.1636262
  71.4401570  47.0966575  20.0782173  70.8772405  46.6839185  20.6021834
  72.2022594  47.0219481  20.4975316  71.4696019  47.0243976  20.2175173
  68.3576841  31.0312707   8.0503310  69.1122809  31.3991024   7.8120361
  68.1804375  31.4052261   8.8182490  68.4431319  31.1410895   8.1288199
  66.9997562  49.0864596  12.6818803  67.7018141  48.5716585  12.7391560
  66.9195045  49.4138748  13.4865678  67.0921322  49.0578822  12.8091595
  68.0476468  39.3240183  21.8099218  68.2196972  39.2146078  22.6584500
  68.5845826  39.9694589  21.5730411  68.1521472  39.4032185  21.9004315
  66.7133905  33.4383026   4.7481423  66.5309479  33.6554907   3.9222416
  67.5759518  33.5522039   4.8040038  66.8138495  33.4872924   4.6335910
  66.3248337  45.2770948  12.1904411  67.1637237  45.5093881  12.2378173
  66.3560106  44.4075260  12.1211447  66.4530055  45.1827895  12.1869056
  66.9501040  45.6971823  16.4917717  67.4899265  45.5542954  17.1621089
  66.2670987  46.0968574  16.8601743  66.9293194  45.7351494  16.6452139
  76.3741925  41.3762824  11.6862741  77.1299440  41.8094338  11.7251650
  76.4804250  40.7267594  12.2597377  76.5012096  41.3440308  11.7760767
  73.9851170  47.2444434  23.7608295  74.7691587  47.3575282  24.1264037
  73.7847765  46.4185571  23.9566980  74.0717195  47.1391154  23.8442681
  62.3538185  41.9172114  16.6452138  62.0876601  41.1011231  16.8043129
  62.3676750  41.9625270  15.7747654  62.3162908  41.8029019  16.5405620
  66.2595932  36.7157199   3.2603896  65.5454110  36.4295378   3.6726329
  66.7439901  37.0553824   3.9010284  66.2255296  36.7238848   3.4159531
  67.1036792  35.4550492  19.2919146  66.4108589  34.9847472  19.5379878
  67.7197119  35.2288797  19.8660853  67.0921322  35.3517624  19.4128299
  74.1421563  49.1554536  17.4074750  73.3436809  48.9154036  17.6648619
  74.5907575  49.2068929  18.1541798  74.0896175  49.1276927  17.5559674
  62.7631599  42.7030894  13.9263883  62.5807172  42.6777780  13.0736175
  63.4981268  43.1729831  13.9652791  62.8445663  42.7692256  13.8061801
  65.8277351  39.4215896  20.4345991  66.5517323  39.4068927  20.9210886
  65.9293487  40.1311252  19.9367960  65.9495560  39.5240600  20.4324778
  73.2022300  42.9014981  25.2994938  72.4095281  43.2158493  25.4847558
  73.3171227  43.1166449  24.4615723  73.1017711  42.9798818  25.2033273
  75.8753619  39.6248972   9.5889954  75.9700474  40.3638266  10.0429580
  75.2512463  39.1966448  10.0224519  75.7962649  39.6710293   9.7198102
  74.1306093  42.8035185  20.2380235  74.7044955  42.1662429  20.3928799
  74.0520897  42.8039267  19.3689893  74.2039328  42.7100296  20.1326646
  62.7302509  39.5824394  14.0762949  63.3076012  39.4460845  14.7155195
  62.0316571  39.1260178  14.3308534  62.7123531  39.4946660  14.2085239
  69.4869812  41.2358450  12.2901432  69.2289056  40.4030185  12.2632732
  69.5418294  41.4616063  11.4493933  69.4569589  41.1456221  12.1621569
  74.5670862  33.3386901  12.3905525  73.8627188  32.8496086  12.5489444
  74.6155836  33.3509375  11.5193970  74.4700913  33.2676549  12.2844865
  68.4604524  38.7896212  12.7766327  67.8854115  38.9488381  13.4130288
  68.0840200  38.1531622  12.3134778  68.3207336  38.7194025  12.8020886
  72.1277812  37.2619562  17.6358706  71.7392245  36.8373779  16.9810897
  71.4632511  37.5101711  18.1435732  71.9724740  37.2358283  17.6146574
  58.2061343  38.4336287  10.7910768  58.2921594  38.0568155  11.5724298
  58.8337140  38.0596733  10.3130726  58.3117894  38.3221769  10.8356245
  75.9504174  30.9594190  15.1482690  76.3314686  30.2772362  15.5350564
  75.1467458  30.6703793  14.9658354  75.8880636  30.8161239  15.1786746
  69.1024659  44.9639684  10.9607825  69.7398606  44.7251431  11.5059618
  69.5279730  45.1676843  10.2260985  69.2600825  44.9590694  10.9324982
  63.7937301  47.2028020  14.8442128  63.8341447  47.4742871  14.0161908
  64.3531825  47.7269928  15.2599916  63.8820647  47.3203775  14.7834017
  69.7427474  40.1841973   5.2982714  70.1272627  39.9649680   6.0499259
  69.4939094  41.0104919   5.4283790  69.7629547  40.2740120   5.4283791
  69.9096014  33.4648389  25.0145298  69.5949455  34.2347951  24.7514861
  69.5885947  32.9018645  24.4297525  69.8154933  33.4958657  24.8886648
  71.4846131  45.4412106  12.6401611  71.5585139  45.2787278  13.4943461
  72.3015637  45.6302296  12.3962093  71.6162489  45.4448849  12.7299637
  65.2451888  45.7869969   9.6696054  64.4190005  46.0331706   9.5430333
  65.3063879  45.7082050  10.5358113  65.1326055  45.8114918   9.7784999
  67.4627911  31.8538910  10.6291495  66.5950337  31.9261510  10.6949104
  67.7503116  32.6560989  10.8179470  67.3767659  31.9833057  10.6666261
  76.5860800  32.0016770  18.9602816  77.3314392  31.8126580  18.5466242
  76.1698105  32.5275007  18.4016673  76.6345774  32.0518915  18.8167390
  70.6145462  43.2064595  18.4568215  70.1157155  43.9180363  18.5353103
  71.4245686  43.5265262  18.4186377  70.6601568  43.3591444  18.4624783
  67.9656632  50.3814232  10.4375234  67.7456928  50.0911587  11.2301901
  67.7451154  49.7229187   9.9093146  67.9004226  50.2413940  10.4764143
  66.8773579  42.4687548  12.7030936  66.5886828  41.8425020  13.2376663
  67.7456927  42.4107836  12.7695616  66.9633831  42.3675093  12.7921890
  77.6651477  37.6122332  13.0212918  77.3216243  36.8912667  13.3720167
  77.7644520  37.4036183  12.1791276  77.6293520  37.4746535  12.9484598
  67.0805853  44.1082799   8.6273301  67.8351821  44.4895838   8.8408763
  66.4876465  44.5593943   9.0819997  67.1042566  44.2311627   8.7256179
  69.5412520  36.0645640  23.7530513  68.7312295  36.3703419  23.6420355
  70.0187206  36.7851222  23.8683097  69.4915999  36.2160241  23.7537584
  68.4004079  45.2791361  14.0013416  67.8784833  45.4191652  14.6865281
  68.7878100  44.5202025  14.1915534  68.3807780  45.1876885  14.1314493
  65.3895263  35.3297169   8.0708371  65.1020059  34.9598440   7.3340318
  66.0765732  35.7992025   7.8092076  65.4484161  35.3444139   7.9223447
  69.8270405  42.3095380   9.3994907  69.6313188  42.9170114   8.8055210
  70.0504751  41.6163324   8.9186581  69.8305046  42.2972905   9.2410988
  68.2248935  39.1950118   9.5175776  68.9471587  39.3591276   9.0579582
  67.7456928  39.9159783   9.4115115  68.2612666  39.3248347   9.4341390
  76.1842443  35.5313916  14.8972460  75.3453543  35.5575195  14.6610724
  76.2546810  36.1784652  15.4777807  76.0710836  35.6310042  14.9481577
  65.8756552  41.6008190  18.6229915  66.3877649  41.8792443  17.9738675
  65.5892894  42.3397484  18.9892728  65.9091415  41.7510544  18.5819793
  62.9623458  36.1078382   8.9193652  63.0639594  36.9104543   9.2474627
  63.7579345  35.9065718   8.6216732  63.0951364  36.1964281   8.9229007
  69.3940277  33.6934579  18.6830957  69.2023474  33.7089713  19.5330381
  70.2438873  33.8898253  18.6597612  69.4915999  33.7248930  18.8054252
  63.7787190  36.2225560  16.6614773  63.6372682  35.3709501  16.7859281
  64.0627753  36.2654221  15.8376979  63.7995036  36.1025310  16.5582398
  73.9325782  38.0592650  10.8059262  73.6860497  37.9788401  11.6396051
  74.2610905  37.2746118  10.6121789  73.9447026  37.9318916  10.9006785
  77.8273831  44.7676010  14.5946043  77.6888191  45.4657055  15.0994785
  77.0473829  44.6124666  14.2382225  77.6917058  44.8476176  14.6172317
  76.1651916  41.0672385  20.8468425  76.1599955  40.1952202  20.8510851
  76.8712910  41.2660554  20.3737880  76.2696920  40.9676259  20.7775460
  69.8922810  40.7949369  20.2182245  70.0366185  41.3750577  19.5825355
  70.2398458  41.1725666  20.9232099  69.9650271  40.9370073  20.2281240
  72.0642727  39.9939537  18.0007376  71.3166041  40.1870552  17.5955654
  72.2184252  39.1684757  17.7631498  71.9765155  39.9004649  17.9052782
  68.9650565  48.9852141  17.0843272  69.1140128  48.4255057  16.4316676
  69.7450567  49.0644142  17.4675790  69.1024658  48.9137706  17.0440221
  71.4903865  49.1566784  18.3627762  71.4147536  48.4875594  18.9178551
  71.4193724  49.8584572  18.8768429  71.4684472  49.1611691  18.5204611
  72.3044504  33.8890088  18.8902780  72.7617118  34.6214062  19.0175572
  72.3800833  33.4656553  19.6490036  72.3835474  33.9347326  19.0203857
  64.5477495  34.1355908  19.9792224  64.0119685  33.5236266  20.2952991
  64.6095260  34.7104044  20.6325890  64.4773128  34.1302835  20.1227651
  70.1826882  35.8792192  15.7344604  69.3922957  35.6983652  16.0561940
  70.5787505  35.1019145  15.7174899  70.1243758  35.7379653  15.7797153
  75.5670568  43.5134622  13.4604050  74.8915570  43.2819854  13.9617437
  75.5762944  42.9055805  12.8346155  75.4689073  43.3893547  13.4420202
  72.6964712  38.3552451  20.2168103  72.6323854  39.2162408  20.0888240
  72.8361900  38.0384444  19.4163654  72.7080182  38.4352618  20.0796316
  71.3783806  41.0484590  14.3584306  70.9546055  41.2489089  13.6223324
  71.2028661  40.2013438  14.4708606  71.2894687  40.9533372  14.2657996
  70.8795500  52.5635103  16.8205763  71.3691430  51.8645893  16.6381428
  70.3079732  52.2658973  17.4081821  70.8680030  52.4161327  16.8806804
  66.6666251  41.5436642   9.7912279  66.8230870  41.4783445  10.6468271
  67.0066844  42.3185194   9.5790958  66.7399486  41.6485840   9.8866873
  73.2045396  40.9194525   8.6605642  73.7460941  40.4164907   9.1244262
  73.5191955  40.8659720   7.8495127  73.3309793  40.8373946   8.6089454
  77.0762503  45.1297173  25.7732554  77.8897368  44.8582322  25.9337686
  76.9157470  44.8304713  24.9692750  77.1732452  45.0452099  25.6777960
  74.3534665  35.8130830  18.7127942  74.5676635  35.1741744  18.1591296
  73.7368564  36.2576654  18.2835804  74.2939994  35.7840974  18.5678373
  63.2400513  38.7271592  10.1073046  63.6199477  39.1456137   9.4433313
  62.6655877  39.3085048  10.4141889  63.2111838  38.8749451  10.0549787
  76.5173753  37.4219895  19.6511249  75.7050435  37.1145786  19.7324422
  76.9763688  36.9418895  20.2153961  76.4654138  37.3056388  19.7465843
  73.7449394  28.9230766  13.7015285  72.8742952  28.8969487  13.6548594
  73.9989735  28.7507958  12.8841131  73.6542954  28.8940909  13.5735422
  73.6127261  38.8279967  24.4339952  74.0826892  39.4522083  24.8207826
  73.6589141  38.1596942  24.9933166  73.6895137  38.8214647  24.5740023
  70.7698534  30.9336994  15.1588755  70.2537023  30.2417186  15.2840334
  70.2092463  31.6007771  15.1051354  70.6105048  30.9300252  15.1694821
  72.8390768  31.4729954  16.9881608  72.4522521  31.4978986  17.7695138
  72.3523705  30.9071633  16.5356125  72.7103277  31.3925705  17.0369512
  77.0883747  46.1903463  21.0455394  77.7263468  45.6963659  20.7117851
  76.4457839  46.1180864  20.4607621  77.0877974  46.1062472  20.9097749
  78.8140747  38.0392609  15.6121310  78.3868355  37.9518958  14.8569410
  78.1766800  38.1470385  16.1976154  78.6570355  38.0425269  15.5866752
  72.5047909  28.3596940  19.2791868  73.1341027  28.8957240  19.0012938
  72.6733772  28.2674299  20.1305434  72.6225704  28.4258302  19.3640396
  72.3061824  33.1468134  21.5518279  73.1335254  32.8753283  21.6076894
  72.3269670  33.9428976  21.9082098  72.4314674  33.2247889  21.6133462
  77.1438004  46.8823271  17.6860751  77.9330382  46.5312336  17.8062833
  77.3181602  47.6959660  17.4237385  77.2858285  46.9509128  17.6648619
  66.8831314  40.2931997  14.7388540  66.0419321  40.1935871  14.9467434
  67.0921322  41.0627477  15.0902861  66.7896007  40.3924040  14.8215855
  64.3606881  37.9151534  12.5673291  63.9663579  37.9894546  11.7923400
  63.8046998  38.3009480  13.1181653  64.2209694  37.9833309  12.5340951
  75.9971828  30.8932828  12.2477170  76.2021421  30.8255136  13.0934167
  75.6698252  31.6991649  12.1798347  75.9787076  31.0018768  12.3636825
  70.6947979  38.2213396  13.9886138  70.3911117  37.6669385  14.5896545
  69.9927400  38.4005606  13.5014172  70.5464189  38.1658179  14.0055843
  69.7514076  35.5313916   8.5530839  70.0273810  34.8132829   8.1408407
  70.3512745  36.1298836   8.3451946  69.8807341  35.5134287   8.4611601
  68.7566330  45.4363117  18.6958235  68.6486685  45.4465179  19.5620293
  68.9662112  46.2617897  18.5063189  68.7716441  45.5604192  18.7962327
  66.7740122  42.6875759  16.1580173  66.1828055  43.3285258  16.1283188
  67.5361146  43.1113377  16.1311473  66.7988383  42.8451598  16.1495320
  67.1700745  33.8477757  16.8248191  67.6302226  33.9216687  17.5623314
  67.2156852  34.6459011  16.4748012  67.2451300  33.9771904  16.8820947
  68.8184095  34.5144452  21.3920218  68.4269660  33.8677799  21.8275995
  68.9869957  35.1055887  22.0114473  68.7855005  34.5058720  21.5482924
  76.5329638  48.1385071  13.5912197  76.3349327  48.6275885  12.8968409
  75.9117349  48.3426312  14.1696331  76.4117203  48.2401609  13.5735421
  70.5937617  39.9069968   7.9322442  71.3379662  40.2944244   8.1705392
  70.7398313  39.0627393   8.0962930  70.7248202  39.8400441   7.9916411
  72.5117192  31.7020227  12.9654303  71.6653237  31.8743034  12.8395653
  72.5088325  30.8969570  13.3020131  72.3864342  31.6081256  12.9965430
  73.5815493  35.4795441  13.8316361  73.1075447  34.9537203  14.3421672
  73.9533628  34.9324914  13.2631223  73.5665381  35.3211438  13.8231508
  63.9588523  37.4766948  19.1999907  64.8214136  37.3762657  19.1137237
  63.6280306  36.8961657  18.6385479  64.0373719  37.3758575  19.1045313
  67.3190309  36.3009397  15.8610325  66.6943379  36.3127789  15.2536278
  66.9835904  36.7769572  16.5101565  67.1775800  36.3727914  15.8666894
  67.5032057  34.6434515   1.9183010  67.1544862  35.2954241   2.3814559
  67.0228503  34.6291628   1.1906881  67.3802301  34.7377569   1.8794101
  64.0315984  44.3609857  17.3014089  63.5015909  43.6702296  17.3509064
  64.3041078  44.3520042  16.4726798  63.9940707  44.2576989  17.1861505
  74.2322230  41.8033101  17.2752461  73.6179223  41.2591152  17.5701096
  74.7489515  41.2897338  16.7958277  74.2177892  41.6469511  17.2476689
  73.4718527  42.8737372  15.0096760  73.0446135  42.2487090  14.5762195
  73.4643471  42.5912293  15.8355767  73.4077668  42.7390152  15.0676587
  66.5881054  37.9102545  18.0785194  66.7474541  37.1545869  18.4836915
  66.4073948  38.4593484  18.7325931  66.5846413  37.8796358  18.2347900
  74.5301357  30.0763780  18.6335983  74.0341918  30.2727454  17.9427550
  75.2870419  30.4756448  18.4624785  74.5688182  30.1641514  18.5056120
  71.8004237  33.7506126  15.2239294  71.8246724  33.2166238  14.5352074
  72.0515710  33.2423435  15.8864884  71.8414155  33.5967030  15.2203938
  59.3111826  41.0337621  14.6582438  59.2055276  40.9884465  13.7934522
  58.5612046  41.3791402  14.9396723  59.1847429  41.0778529  14.5719767
  68.0805559  32.4776944  14.6045038  68.1203930  32.9786151  15.3179745
  67.2555223  32.5687338  14.3350961  67.9645085  32.5658761  14.6695576
  70.2635172  42.0437684  22.7065332  69.4130802  42.1809399  22.8422977
  70.4263299  41.3101463  23.1513034  70.1619035  41.9551786  22.7920932
  69.5019922  38.9937454  16.9018937  68.6711852  39.1611272  16.6954185
  69.4471439  38.6173405  17.6867822  69.3709337  38.9627185  16.9867465
  67.3103705  32.4846347  22.5375348  67.9356409  31.9408480  22.8104780
  66.8554185  32.0041265  21.9683138  67.3351966  32.3335828  22.4936941
  67.8755966  37.2693046   7.4309055  68.0158927  37.7665510   8.1337696
  68.3738499  36.5679340   7.5723268  67.9697047  37.2395024   7.5560634
  67.9056188  38.1360157   4.7601631  68.5401268  38.7320582   4.6951093
  67.9881799  37.8363614   5.5747502  68.0112739  38.1801065   4.8704718
  69.4835171  34.0674132   4.7347073  69.8051012  33.5877215   4.0806336
  69.7462115  34.8773778   4.5437885  69.5701197  34.1164030   4.6102565
  72.7132144  45.0893006  18.2545889  72.2057235  45.6428853  18.6986520
  72.4158790  45.1501296  17.4364664  72.5937029  45.1799318  18.1994346
  74.8794326  33.4546326  17.0970552  75.3049398  33.0018853  16.4854079
  74.2651319  32.9006397  17.3735340  74.8522972  33.3060302  17.0475578
  64.4109176  40.3327997   8.0291177  64.9201406  40.9292505   8.4102483
  64.8843449  40.0653971   7.3467597  64.5552552  40.3813813   7.9845700
  73.3188549  29.9261426  10.5061129  72.6756867  29.7759072  11.0746268
  72.9787956  29.6803771   9.7410234  73.1733626  29.8673548  10.4764145
  77.9087896  37.8820853   9.9291138  77.2379085  38.4250555   9.8004204
  78.6027646  38.3515708   9.6872833  77.9116763  38.0319124   9.8746666
  71.9574629  50.0217565  15.1602896  71.7340284  49.2636394  15.5286923
  71.4684473  50.0515586  14.4383336  71.8518078  49.9139789  15.1079637
  78.0716023  34.3376736  12.8381511  78.4243633  33.9106459  13.5127310
  77.2130825  34.2527580  12.9682588  77.9965468  34.2621477  12.9576522
  66.7699708  36.9684256  10.8964358  66.0511697  37.3848389  11.1637221
  67.1412070  37.5338495  10.3455996  66.7191640  37.1133537  10.8547165
  76.0699289  37.6012105  16.7866354  76.0497216  37.4195400  17.6401132
  76.1178490  38.4724123  16.7625937  76.0733930  37.7028643  16.9089648
  74.0145619  44.1899297  22.7114830  73.9741474  43.5448974  22.1259986
  74.8268937  44.1335914  23.0240242  74.1288772  44.0858264  22.6711779
  70.6053086  50.2418023  12.6139981  70.1913485  49.5792153  12.2243823
  71.2900461  50.3895882  12.0935675  70.6451458  50.1658681  12.4796478
  73.9718380  49.4008108  13.3663598  73.5734664  49.5110378  12.5984418
  73.3569600  49.6090174  13.9490157  73.8217270  49.4481676  13.3394897
  72.5446282  36.0082256   6.2337737  71.9511122  36.3299252   5.6822304
  72.5821560  35.1623351   6.0258843  72.4620672  35.9306584   6.1220509
  75.4204099  35.9661760   9.6639488  75.1917792  35.9894462   8.8217846
  75.6802175  35.1419227   9.7834498  75.4250287  35.8477840   9.5564685
  69.7023327  37.8196233  19.2664588  69.1902231  37.2117416  19.6249619
  69.5302824  38.5352826  19.7338563  69.6012964  37.8359533  19.3880811
  64.5489042  36.2633809  21.9166950  64.3791632  36.9235184  21.3715156
  64.1054992  36.4740370  22.6379439  64.4588376  36.3919791  21.9428579
  68.4748861  34.5038307  10.9593683  68.9506228  34.8655387  10.3243864
  67.9737461  35.1594774  11.2393826  68.4714220  34.6532495  10.9070424
  73.5792398  35.7420478  21.7066843  74.1363828  35.5134288  21.0745309
  73.2553463  36.5026144  21.4302056  73.6138808  35.8204315  21.5723340
  71.2975515  38.8288131  22.6718850  72.0486842  39.1439808  22.9858405
  71.4898092  38.6267302  21.8452772  71.4366929  38.8455513  22.5962246
  70.5175515  36.6479507   4.3267067  70.8974479  36.6659136   3.5418182
  69.7768111  37.0933495   4.2057914  70.4644352  36.7161281   4.1930635
  78.1460805  34.9561698   9.9142646  78.1455032  34.8010354  10.7726922
  77.9416985  35.8024685   9.8584031  78.1160583  35.0582318  10.0330585
  60.2078076  38.3801482  14.3301462  60.0299837  37.9278091  15.0556378
  59.9197098  39.1827644  14.5139940  60.1391029  38.4324040  14.4644965
  75.8701657  39.6359200  13.5678853  76.3655323  38.9182195  13.5282873
  75.0601433  39.3329997  13.4533340  75.8245551  39.4856846  13.5452579
  61.9450546  40.9129206  11.4423221  61.0796065  40.9014896  11.3305993
  62.0449362  40.7259429  12.2894361  61.8324713  40.8835267  11.5512166
  77.9353476  42.3862887  16.2555981  78.3608548  41.8637309  15.7026407
  77.5710396  42.9843724  15.7344604  77.9440079  42.3973114  16.0964991
  67.5707556  50.6827105  15.0153327  67.8854115  51.4963493  15.0231109
  67.9800969  50.2977323  15.6835486  67.6775654  50.7455807  15.1157419
  74.5232076  46.0997151  12.5857139  74.9943254  46.8137414  12.7547124
  74.8592254  45.4995901  13.1217008  74.6427191  46.1168616  12.6889515
  76.6109060  47.7098465  24.7649211  76.7206026  46.9207025  25.1205958
  76.9399957  47.6204401  23.9623549  76.6761466  47.5804318  24.6991602
  71.4401571  30.8724622  19.5415234  71.5729476  30.0755615  19.8696209
  71.8246723  31.3991025  20.1213509  71.5157899  30.8324539  19.6758737
  75.1606022  45.8915085  19.3484832  74.6126968  45.2672969  19.0804897
  75.6219051  46.0809357  18.6328911  75.1473231  45.8274136  19.2035263
  74.5133926  27.7954948  16.1396327  73.7079889  27.6852678  16.4564165
  74.3840661  27.8967404  15.2826193  74.3754059  27.7938618  16.0604367
  77.9699886  33.9600440  16.7336024  77.3862875  34.4609646  16.3213591
  78.2904180  33.4529996  16.1000347  77.9313062  33.9592275  16.5794531
  70.5094685  32.8741035   7.0094699  71.3310380  33.0439348   6.7676394
  70.0464336  33.0288296   6.2860996  70.5625848  32.9222768   6.8666343
  69.0990017  30.8683797  17.7893127  69.6434430  30.5274924  18.3797469
  69.1526953  31.7269258  17.9314412  69.1879137  30.9439056  17.8975001
  64.9120576  44.6300213  14.6631935  65.5165433  44.5896047  14.0345756
  64.7047889  45.4771365  14.6935991  64.9709473  44.7488215  14.5748052
  74.7264348  46.8966158  15.8794173  75.5462722  46.7529124  16.1410468
  74.4458426  47.5212357  16.4210611  74.8061092  46.9676510  15.9982112
  60.1471858  43.6134831  14.5330859  60.0496136  42.8031102  14.8420915
  60.9300728  43.5926624  14.1477127  60.2487995  43.4901921  14.5217721
  75.5827844  54.9246070  16.3970194  75.4586541  55.5108515  17.0320013
  76.2346129  54.4306265  16.6982469  75.6601493  54.9384874  16.5356123
  73.3270769  57.4357422  16.6452138  73.0609184  56.6196539  16.8043129
  73.3409333  57.4810578  15.7747654  73.2895491  57.3214327  16.5405620
  78.0769375  50.9735800  19.2919146  77.3841172  50.5032780  19.5379878
  78.6929703  50.7474105  19.8660853  78.0653905  50.8702932  19.4128299
  76.8009934  54.9401204  20.4345991  77.5249907  54.9254235  20.9210886
  76.9026071  55.6496560  19.9367960  76.9228143  55.0425908  20.4324778
  76.8489135  57.1193498  18.6229915  77.3610232  57.3977751  17.9738675
  76.5625478  57.8582792  18.9892728  76.8823998  57.2695852  18.5819793
  74.7519774  51.7410868  16.6614773  74.6105265  50.8894809  16.7859281
  75.0360337  51.7839529  15.8376979  74.7727620  51.6210618  16.5582398
  75.5210079  49.6541216  19.9792224  74.9852268  49.0421574  20.2952991
  75.5827844  50.2289352  20.6325890  75.4505712  49.6488143  20.1227651
  78.1433328  49.3663065  16.8248191  78.6034810  49.4401994  17.5623314
  78.1889435  50.1644319  16.4748012  78.2183884  49.4957212  16.8820947
  74.9321106  52.9952256  19.1999907  75.7946719  52.8947965  19.1137237
  74.6012889  52.4146965  18.6385479  75.0106303  52.8943882  19.1045313
  78.2922892  51.8194705  15.8610325  77.6675962  51.8313097  15.2536278
  77.9568487  52.2954880  16.5101565  78.1508384  51.8913222  15.8666894
  77.5613638  53.4287853  18.0785194  77.7207124  52.6731177  18.4836915
  77.3806531  53.9778792  18.7325931  77.5578997  53.3981666  18.2347900
  72.4223690  54.6865982  17.1755439  71.8750410  54.0166628  17.2936308
  73.2116068  54.3195830  17.2398907  72.4575874  54.5330969  17.2024140
  71.1810660  53.8986790  14.3301462  71.0032421  53.4463399  15.0556378
  70.8929682  54.7012951  14.5139940  71.1123613  53.9509348  14.4644965
   4.7130391  45.8736732  47.7682269   4.6824396  46.7281369  47.9400539
   5.3111740  45.5732024  48.3268413   4.7967549  45.9553228  47.8757071
   1.2223793  51.2298909  62.1295656   1.9290560  50.7350939  62.2582590
   1.4111728  51.6707990  61.3998314   1.3551698  51.2217259  62.0404701
   0.7581897  47.0204427  55.1666851   1.3037857  47.6989513  55.2260821
   0.6998774  46.8791888  54.3068433   0.8297812  47.0996428  55.0478912
   2.5346966  48.4489034  46.0400579   2.4186492  49.1996720  46.4692717
   3.3302853  48.1912987  46.2896666   2.6351555  48.5223881  46.1404671
   1.8482271  35.7976971  49.7375193   1.5335712  36.4880450  50.1695616
   1.3309213  35.7421754  49.0360694   1.7246741  35.8911860  49.6972142
   1.1894705  45.7981472  45.8512604   0.6606176  46.0141106  46.5109910
   1.7119725  46.4917611  45.7713573   1.1883158  45.9324609  45.9368203
   6.6442758  51.3727777  51.2245648   5.8140461  51.5838420  51.3879065
   6.5952010  50.5464831  50.9487932   6.5149493  51.2817383  51.2083014
   6.1396716  44.0198177  55.0196070   5.3025137  44.0900365  55.2543664
   6.1084947  44.0222672  54.1470372   6.0114998  44.0308404  54.9255618
   0.8626902  48.2153854  50.6107961   1.6184417  48.6485368  50.6496870
   0.9689226  47.5658624  51.1842597   0.9897072  48.1831338  50.7005987
   3.9007073  52.0427131  51.3610364   3.4642305  52.0463874  52.1169336
   3.5669988  52.7232630  50.9289942   3.7869693  52.1439587  51.4091197
   3.8204556  39.0840959  53.6039792   4.4630464  39.1539064  54.1901707
   4.0727576  38.4170182  53.1019334   3.9526688  38.9967308  53.6167071
   7.0351419  48.7608051  50.2530001   7.6967853  48.1998720  50.1525910
   6.3942831  48.2660082  50.5782693   7.0380286  48.6044460  50.2862342
   3.3216250  49.7773434  49.9941990   3.5571839  49.9218632  49.1668841
   3.4705813  50.5415842  50.3873504   3.3782053  49.9112488  49.9305594
   5.1506706  48.6175099  47.8311594   5.4814924  49.1502740  47.2251689
   5.7239795  48.6713987  48.4873545   5.2840386  48.7044668  47.8389376
   0.6161617  48.3088742  41.7472126   0.5341779  48.3790929  42.6127113
   1.2541337  48.8718486  41.5555867   0.6981454  48.4027713  41.8462076
   6.2586058  43.8585596  49.3351756   6.0022623  43.0465538  49.1449638
   7.1015372  43.8663163  49.1081943   6.3452083  43.7397594  49.2736573
   3.9411217  51.0135192  59.1710308   3.7049855  50.1823257  59.0522369
   4.5854446  50.9620800  59.7565152   4.0005888  50.8832880  59.2396202
   4.9647638  50.7979641  55.2338603   4.6593455  51.5307698  55.5951918
   4.2453854  50.3917571  54.9531389   4.8134980  50.8461374  55.2451740
  10.6649430  47.4372642  54.5606947  10.5973930  47.4568601  53.6909534
  10.6505092  48.2802969  54.7862618  10.6528186  47.5646376  54.4659424
   1.0745776  38.8407800  57.8848036   1.8199368  38.6517610  57.4711462
   0.6583081  39.3666037  57.3261893   1.1230751  38.8909945  57.7412610
   8.4508047  46.2117028  52.8353541   9.0015969  45.5785097  53.0750633
   8.4352163  46.7432421  53.5269046   8.5293244  46.1965976  52.9732400
   2.1536454  44.4513362  51.9458138   1.8101219  43.7303697  52.2965387
   2.2529496  44.2427213  51.1036496   2.1178496  44.3137565  51.8729818
   2.6149483  50.9139066  47.4882126   3.1807515  51.5732276  47.4040669
   1.9677386  51.2588764  47.9598528   2.6028239  51.0621007  47.5454882
   4.5484943  47.5772933  51.1078922   4.4618917  47.7328359  51.9613701
   4.0935423  48.2211009  50.7338327   4.4688199  47.6948688  51.1786029
   2.3158808  51.6067040  53.5191263   2.1773167  52.3048085  54.0240005
   1.5358806  51.4515696  53.1627445   2.1802035  51.6867206  53.5417537
   0.6536893  47.9063415  59.7713645   0.6484931  47.0343232  59.7756071
   1.3597887  48.1051584  59.2983100   0.7581897  47.8067289  59.7020680
   3.8112181  50.9645293  44.2807762   3.4318989  50.1782431  44.2737052
   3.1478426  51.5132150  44.1379406   3.6570655  50.9290117  44.2588559
   1.2656806  33.9070993  51.6841843   1.3840375  34.3647456  50.9509146
   1.0918982  33.1016254  51.3978061   1.2575977  33.8564765  51.5342777
   2.0572279  53.2090784  44.6159448   2.1392117  54.0157771  44.2920899
   2.5422022  53.2286744  45.3400222   2.1409437  53.3311447  44.6746347
   1.5647480  51.9688203  64.6977774   2.3782345  51.6973352  64.8582906
   1.4042446  51.6695743  63.8937970   1.6617428  51.8843129  64.6023180
   1.5768724  53.0294493  59.9700615   2.2148444  52.5354689  59.6363071
   0.9342815  52.9571893  59.3852841   1.5762950  52.9453502  59.8342969
   3.3025724  44.8783639  54.5366530   2.8753332  44.7909988  53.7814630
   2.6651777  44.9861414  55.1221374   3.1455331  44.8816299  54.5111972
   1.6322980  53.7214301  56.6105971   2.4215358  53.3703366  56.7308053
   1.8066578  54.5350690  56.3482605   1.7743262  53.7900158  56.5893839
   3.7390492  38.2855622  50.6525155   3.1264806  38.7726024  51.0378887
   3.8354667  37.6099113  51.1962806   3.6628390  38.2573931  50.7904013
   7.3815520  49.3572559  56.0802671   7.4398644  49.8059208  56.8262648
   6.7481988  49.7671372  55.6432751   7.2966815  49.4846294  56.1255220
   4.3337200  47.3788847  54.1668362   4.0935422  46.5395262  54.1710788
   4.8129207  47.4589013  54.8909135   4.3689383  47.2670246  54.2743164
   6.3342387  44.1590304  52.1197621   6.0952157  44.1186138  51.2818405
   6.4976288  45.0061456  52.2463342   6.3232690  44.2782389  52.0151103
   2.9388417  48.5440253  58.0502666   3.6622616  48.0912780  57.8713686
   2.6738379  48.8244919  57.2674994   3.0069690  48.5191222  57.9081381
   5.3723731  47.5066664  56.5533216   5.9641571  48.1463915  56.5851414
   5.8082725  46.8089701  56.8425282   5.5242162  47.4985014  56.6014048
   2.3972872  44.7211883  48.8536358   1.7264062  45.2641585  48.7249424
   3.0912622  45.1906738  48.6118053   2.4001740  44.8710154  48.7991886
   2.5600999  41.1767766  51.7626731   2.9128610  40.7497489  52.4372530
   1.7015801  41.0918610  51.8927808   2.4850444  41.1012507  51.8821742
   0.5584265  44.4403135  55.7111574   0.5382193  44.2586430  56.5646352
   0.6063466  45.3115153  55.6871157   0.5618906  44.5419673  55.8334868
   3.9925060  36.2986178  52.6911044   3.4855924  35.5915318  52.6232221
   4.7892493  35.9679367  52.8212120   4.0352299  36.1459330  52.7010039
   6.1945200  50.8151105  45.6751908   6.5778805  51.5642461  45.9050005
   5.3989313  51.0616924  45.4163897   6.1338982  50.9620799  45.6709482
   2.6345782  41.7952728  48.8387866   2.6340008  41.6401384  49.6972142
   2.4301962  42.6415715  48.7829251   2.6045559  41.8973348  48.9575805
   2.4238453  49.2253917  55.1801201   2.8493524  48.7028339  54.6271627
   2.0595372  49.8234754  54.6589824   2.4325055  49.2364144  55.0210211
   2.4584863  40.7991470  55.6581244   1.8747851  41.3000676  55.2458811
   2.7789157  40.2921026  55.0245567   2.4198038  40.7983305  55.5039751
  15.6862975  61.3922040  47.7682269  15.6556979  62.2466676  47.9400539
  16.2844324  61.0917332  48.3268413  15.7700133  61.4738536  47.8757071
   8.8862660  60.4797691  52.5235200   8.0300555  60.6406189  52.5744316
   8.9330314  59.6089755  52.5440261   8.7661771  60.3748493  52.5341266
  12.1956376  66.7484216  62.1295656  12.9023144  66.2536247  62.2582590
  12.3844312  67.1893298  61.3998314  12.3284282  66.7402567  62.0404701
  11.7314481  62.5389735  55.1666851  12.2770441  63.2174821  55.2260821
  11.6731357  62.3977196  54.3068433  11.8030395  62.6181736  55.0478912
  13.5079549  63.9674342  46.0400579  13.3919075  64.7182028  46.4692717
  14.3035436  63.7098295  46.2896666  13.6084139  64.0409189  46.1404671
   5.3909875  67.9568365  47.3269921   5.7125716  68.4973572  46.7231229
   6.0381972  67.3865136  47.4592211   5.5335930  67.9527540  47.2576957
   7.4411583  59.9584360  47.4104308   8.1391748  60.1372487  47.9025771
   7.7563916  59.4354699  46.7874697   7.5906920  59.9078132  47.3906318
   7.6299518  66.3454805  47.3984100   8.0693154  65.7371905  47.8438872
   7.4804181  65.9662178  46.6269565   7.6720984  66.1993276  47.3503267
   5.0971161  64.9398817  54.6002925   5.7420164  64.4471260  54.2813874
   5.3372938  65.0823603  55.4269003   5.2281747  64.8876259  54.6752458
   7.6357253  67.7853722  54.2509818   7.9180496  66.9905128  54.0296573
   8.3643413  68.2634310  54.2714879   7.7846817  67.7388319  54.2212833
   5.6138447  55.3276756  51.4925583   5.2841777  55.7787900  50.8229281
   4.9383448  55.2492920  52.0398589   5.4648883  55.3827892  51.4748806
  11.2308855  64.6981986  44.3514869  11.1460150  65.5542953  44.4964438
  11.7193238  64.4226310  45.0197028  11.2897752  64.7839308  44.4716950
  12.8214854  51.3162279  49.7375193  12.5068295  52.0065758  50.1695616
  12.3041796  51.2607062  49.0360694  12.6979325  51.4097168  49.6972142
  12.1627288  61.3166780  45.8512604  11.6338760  61.5326414  46.5109910
  12.6852308  62.0102919  45.7713573  12.1615741  61.4509917  45.9368203
  17.6175341  66.8913085  51.2245648  16.7873044  67.1023728  51.3879065
  17.5684593  66.0650139  50.9487932  17.4882077  66.8002691  51.2083014
   4.0526896  65.2129997  44.6520072   3.4684111  65.7180028  45.0585936
   3.6496991  64.9872384  43.9116664   3.9066200  65.2538245  44.6025097
   9.3348671  70.1711753  60.0209731   9.4232017  69.9837893  60.8687941
   9.7638383  69.5249182  59.6214578   9.4110773  70.0474761  60.0881482
   8.5104110  61.4595649  43.1288993   8.7500114  61.6673633  42.3164336
   8.8319951  60.6553158  43.2377937   8.5941268  61.3709750  43.0249546
   3.8194401  53.3889045  46.9748530   4.5740369  53.7567362  46.7365581
   3.6421935  53.7628599  47.7427710   3.9048879  53.4987233  47.0533419
  17.1129299  59.5383485  55.0196070  16.2757721  59.6085672  55.2543664
  17.0817530  59.5407980  54.1470372  16.9847582  59.5493712  54.9255618
   3.5094028  61.6816521  60.7344438   3.6814532  61.5722416  61.5829720
   4.0463386  62.3270926  60.4975631   3.6139032  61.7608523  60.8249535
   2.1751465  55.7959364  43.6726643   1.9927039  56.0131245  42.8467636
   3.0377078  55.9098377  43.7285258   2.2756055  55.8449262  43.5581130
   1.7865897  67.6347286  51.1149631   2.6254797  67.8670219  51.1623393
   1.8177667  66.7651597  51.0456667   1.9147615  67.5404233  51.1114276
   7.8551185  52.7985775  46.7075667   8.5837345  52.6201729  46.2613824
   7.9446077  53.6403854  46.9182845   7.9757847  52.8969653  46.6729185
  11.8359485  63.7339162  50.6107961  12.5917000  64.1670676  50.6496870
  11.9421810  63.0843932  51.1842597  11.9629656  63.7016646  50.7005987
  14.8739656  67.5612439  51.3610364  14.4374888  67.5649182  52.1169336
  14.5402572  68.2417938  50.9289942  14.7602276  67.6624895  51.4091197
  14.7937139  54.6026267  53.6039792  15.4363048  54.6724372  54.1901707
  15.0460160  53.9355490  53.1019334  14.9259271  54.5152616  53.6167071
   1.7213492  59.0733536  42.1849117   1.0071670  58.7871716  42.5971549
   2.2057461  59.4130162  42.8255504   1.6872856  59.0815186  42.3404751
   2.5654352  57.8126830  58.2164366   1.8726149  57.3423810  58.4625098
   3.1814679  57.5865135  58.7906073   2.5538882  57.7093962  58.3373519
  18.0084003  64.2793359  50.2530001  18.6700437  63.7184028  50.1525910
  17.3675415  63.7845390  50.5782693  18.0112870  64.1229768  50.2862342
   8.8960810  67.5763490  42.5610925   9.3111959  67.2448514  41.8695420
   8.0652740  67.3432393  42.4331061   8.8348819  67.4934746  42.4401772
  14.2948833  65.2958741  49.9941990  14.5304422  65.4403940  49.1668841
  14.4438397  66.0601149  50.3873504  14.3514637  65.4297796  49.9305594
   1.2894911  61.7792234  59.3591211   2.0134883  61.7645265  59.8456106
   1.3911047  62.4887590  58.8613180   1.4113120  61.8816938  59.3569998
  16.1239290  64.1360407  47.8311594  16.4547507  64.6688048  47.2251689
  16.6972378  64.1899295  48.4873545  16.2572969  64.2229976  47.8389376
  11.3371179  61.9825310  48.5135174  11.4318034  62.7214604  48.9674800
  10.7130023  61.5542786  48.9469739  11.2580209  62.0286631  48.6443322
   9.5923653  65.1611523  59.1625455  10.1662515  64.5238767  59.3174019
   9.5138457  65.1615605  58.2935113   9.6656888  65.0676634  59.0571866
  11.5894200  63.8274050  41.7472126  11.5074363  63.8976237  42.6127113
  12.2273921  64.3903794  41.5555867  11.6714038  63.9213021  41.8462076
   4.9487372  63.5934788  51.2146652   4.6906616  62.7606523  51.1877952
   5.0035854  63.8192401  50.3739153   4.9187149  63.5032559  51.0866789
  10.0288422  55.6963239  51.3150745   9.3244748  55.2072424  51.4734664
  10.0773396  55.7085713  50.4439190   9.9318473  55.6252886  51.2090085
   3.9222084  61.1472550  51.7011547   3.3471675  61.3064719  52.3375508
   3.5457760  60.5107959  51.2379998   3.7824896  61.0770363  51.7266106
   7.5895372  59.6195900  56.5603926   7.2009805  59.1950117  55.9056117
   6.9250071  59.8678049  57.0680952   7.4342300  59.5934621  56.5391794
  17.2318642  59.3770904  49.3351756  16.9755206  58.5650846  49.1449638
  18.0747955  59.3848471  49.1081943  17.3184667  59.2582902  49.2736573
  11.4121734  53.3170528  54.0727910  11.7932246  52.6348699  54.4595784
  10.6085018  53.0280130  53.8903574  11.3498196  53.1737577  54.1031966
   8.6934311  63.8494504  44.7580733   9.5074949  64.1409397  44.6463504
   8.6293452  63.1954367  44.1839026   8.8037050  63.7959699  44.6569570
  14.9143801  66.5320500  59.1710308  14.6782438  65.7008565  59.0522369
  15.5587030  66.4806107  59.7565152  14.9738472  66.4018188  59.2396202
   4.5642219  67.3216022  49.8853045   5.2016166  67.0827769  50.4304838
   4.9897290  67.5253181  49.1506205   4.7218385  67.3167032  49.8570202
   5.2045034  62.5418311  44.2227934   5.5890187  62.3226018  44.9744479
   4.9556654  63.3681257  44.3529010   5.2247107  62.6316458  44.3529011
   5.3713574  55.8224727  63.9390518   5.0567015  56.5924289  63.6760081
   5.0503507  55.2594983  63.3542745   5.2772493  55.8534995  63.8131868
  15.9380221  66.3164949  55.2338603  15.6326038  67.0493006  55.5951918
  15.2186437  65.9102879  54.9531389  15.7867564  66.3646682  55.2451740
   6.9463691  67.7988444  51.5646831   7.0202699  67.6363616  52.4188681
   7.7633197  67.9878634  51.3207313   7.0780049  67.8025187  51.6544857
  21.6382014  62.9557950  54.5606947  21.5706514  62.9753909  53.6909534
  21.6237676  63.7988277  54.7862618  21.6260770  63.0831684  54.4659424
   2.9245471  54.2115248  49.5536715   2.0567897  54.2837848  49.6194324
   3.2120676  55.0137327  49.7424690   2.8385219  54.3409395  49.5911481
  12.0478360  54.3593107  57.8848036  12.7931952  54.1702918  57.4711462
  11.6315665  54.8851345  57.3261893  12.0963334  54.4095253  57.7412610
  19.4240631  61.7302336  52.8353541  19.9748552  61.0970405  53.0750633
  19.4084746  62.2617729  53.5269046  19.5025827  61.7151284  52.9732400
   6.0763022  65.5640933  57.3813435   5.5774715  66.2756701  57.4598323
   6.8863246  65.8841600  57.3431597   6.1219128  65.7167782  57.3870003
   2.3391139  64.8263886  51.6276156   2.0504388  64.2001357  52.1621883
   3.2074487  64.7684174  51.6940836   2.4251391  64.7251430  51.7167110
  13.1269037  59.9698670  51.9458138  12.7833803  59.2489005  52.2965387
  13.2262080  59.7612521  51.1036496  13.0911080  59.8322873  51.8729818
   2.5423413  66.4659137  47.5518521   3.2969381  66.8472176  47.7653983
   1.9494025  66.9170281  48.0065217   2.5660126  66.5887965  47.6501399
  13.5882066  66.4324374  47.4882126  14.1540099  67.0917584  47.4040669
  12.9409970  66.7774072  47.9598528  13.5760823  66.5806315  47.5454882
   5.0030080  58.4221978  62.6775733   4.1929855  58.7279757  62.5665575
   5.4804766  59.1427560  62.7928317   4.9533559  58.5736579  62.6782804
   3.8621639  67.6367699  52.9258636   3.3402393  67.7767990  53.6110501
   4.2495660  66.8778363  53.1160754   3.8425340  67.5453222  53.0559713
   0.8512823  57.6873507  46.9953591   0.5637619  57.3174778  46.2585538
   1.5383292  58.1568363  46.7337296   0.9101721  57.7020477  46.8468667
  10.0588644  69.3763158  46.9119205   9.8175320  68.6431019  46.5046270
  10.2389977  69.9250015  46.2585538  10.0496268  69.3485549  46.7549428
   5.2887965  64.6671718  48.3240127   5.0930748  65.2746452  47.7300430
   5.5122311  63.9739662  47.8431801   5.2922606  64.6549243  48.1656208
   3.6866495  61.5526456  48.4420996   4.4089147  61.7167614  47.9824802
   3.2074488  62.2736120  48.3360335   3.7230226  61.6824685  48.3586610
  11.6460003  57.8890254  53.8217681  10.8071103  57.9151533  53.5855944
  11.7164370  58.5360990  54.4023027  11.5328396  57.9886380  53.8726797
  10.0929281  54.7875631  48.5545296  10.7955634  54.5883380  48.0765255
   9.8273470  54.0151574  48.8614140  10.1575913  54.6438597  48.5290738
  15.5217526  63.0958241  51.1078922  15.4351501  63.2513667  51.9613701
  15.0668006  63.7396317  50.7338327  15.4420783  63.2133996  51.1786029
   4.8557837  56.0510917  57.6076177   4.6641034  56.0666051  58.4575601
   5.7056433  56.2474591  57.5842832   4.9533559  56.0825268  57.7299472
   9.3943342  60.4168988  49.7304482   9.1478057  60.3364739  50.5641271
   9.7228466  59.6322456  49.5367009   9.4064586  60.2895254  49.8252005
  13.2891391  67.1252348  53.5191263  13.1505751  67.8233393  54.0240005
  12.5091389  66.9701004  53.1627445  13.1534618  67.2052514  53.5417537
  11.6269476  63.4248723  59.7713645  11.6217515  62.5528539  59.7756071
  12.3330470  63.6236892  59.2983100  11.7314480  63.3252597  59.7020680
   5.3540370  63.1525707  59.1427465   5.4983745  63.7326915  58.5070575
   5.7016018  63.5302004  59.8477319   5.4267831  63.2946411  59.1526460
   7.5260287  62.3515875  56.9252596   6.7783601  62.5446890  56.5200875
   7.6801812  61.5261095  56.6876718   7.4382715  62.2580987  56.8298002
  14.7844764  66.4830601  44.2807762  14.4051573  65.6967739  44.2737052
  14.1211010  67.0317458  44.1379406  14.6303239  66.4475425  44.2588559
   7.7662064  56.2466426  57.8148000   8.2234678  56.9790400  57.9420792
   7.8418393  55.8232891  58.5735256   7.8453034  56.2923664  57.9449077
  12.2389390  49.4256301  51.6841843  12.3572958  49.8832764  50.9509146
  12.0651566  48.6201562  51.3978061  12.2308561  49.3750073  51.5342777
   5.6444442  58.2368530  54.6589824   4.8540517  58.0559990  54.9807160
   6.0405065  57.4595482  54.6420119   5.5861318  58.0955991  54.7042373
  10.1310333  67.0656304  40.0996538  10.8983318  67.1256429  39.6902390
   9.6841642  66.4936746  39.6152856  10.1783760  66.9892880  39.9674248
  11.0288128  65.8710960  52.3849270  10.3533130  65.6396192  52.8862657
  11.0380504  65.2632143  51.7591375  10.9306633  65.7469885  52.3665422
   8.1582272  60.7128789  59.1413323   8.0941414  61.5738745  59.0133460
   8.2979460  60.3960782  58.3408874   8.1697742  60.7928956  59.0041536
  13.0304863  68.7276092  44.6159448  13.1124700  69.5343079  44.2920899
  13.5154605  68.7472052  45.3400222  13.1142021  68.8496755  44.6746347
   6.8401366  63.4060928  53.2829526   6.4163615  63.6065427  52.5468544
   6.6646221  62.5589776  53.3953826   6.7512247  63.3109710  53.1903216
   2.1283811  63.9012980  48.7157499   2.2848430  63.8359783  49.5713491
   2.4684404  64.6761532  48.5036178   2.2017046  64.0062178  48.8112093
   8.6662956  63.2770863  47.5850862   9.2078501  62.7741244  48.0489482
   8.9809515  63.2236058  46.7740347   8.7927353  63.1950284  47.5334674
  12.5380063  67.4873511  64.6977774  13.3514928  67.2158660  64.8582906
  12.3775030  67.1881051  63.8937970  12.6350012  67.4028437  64.6023180
   6.8349405  68.6688215  44.8690890   6.9042226  67.8102753  45.0083890
   7.6137861  68.8860096  44.5409914   6.9602256  68.5741079  44.8408047
   9.8152225  58.1707168  57.6373162  10.0294195  57.5318082  57.0836516
   9.1986124  58.6152992  57.2081024   9.7557554  58.1417312  57.4923593
  11.9791313  59.7796233  58.5756469  11.1667995  59.4722123  58.6569642
  12.4381248  59.2995233  59.1399182  11.9271698  59.6632725  58.6711063
  11.3896568  67.6575905  49.0233414  11.0311223  67.8290548  49.7997446
  10.9035279  68.1189111  48.4661412  11.2655265  67.7514876  49.0558683
   9.2066954  51.2807104  52.6260505   8.3360512  51.2545825  52.5793814
   9.4607295  51.1084296  51.8086351   9.1160514  51.2517247  52.4980642
   6.1784933  63.3375070  41.5633648   6.4677458  64.1139953  41.8377222
   6.2656732  62.8263802  42.2648147   6.2339189  63.3766989  41.7076146
   9.0744821  61.1856304  63.3585172   9.5444452  61.8098421  63.7453046
   9.1206701  60.5173280  63.9178386   9.1512697  61.1790985  63.4985243
   6.2316094  53.2913332  54.0833975   5.7154583  52.5993523  54.2085554
   5.6710023  53.9584109  54.0296574   6.0722608  53.2876590  54.0940041
   8.3008328  53.8306292  55.9126828   7.9140081  53.8555323  56.6940358
   7.8141265  53.2647971  55.4601345   8.1720837  53.7502043  55.9614732
  12.5501307  68.5479801  59.9700615  13.1881028  68.0539997  59.6363071
  11.9075399  68.4757201  59.3852841  12.5495534  68.4638809  59.8342969
  14.2758307  60.3968947  54.5366530  13.8485915  60.3095296  53.7814630
  13.6384360  60.5046722  55.1221374  14.1187915  60.4001607  54.5111972
   7.9665469  50.7173277  58.2037088   8.5958587  51.2533578  57.9258158
   8.1351332  50.6250636  59.0550654   8.0843264  50.7834640  58.2885616
   7.7679384  55.5044472  60.4763499   8.5952814  55.2329621  60.5322114
   7.7887230  56.3005314  60.8327318   7.8932234  55.5824226  60.5378682
  12.6055564  69.2399609  56.6105971  13.3947942  68.8888674  56.7308053
  12.7799162  70.0535998  56.3482605  12.7475845  69.3085466  56.5893839
   2.3448874  62.6508335  53.6633760   1.5036881  62.5512209  53.8712654
   2.5538882  63.4203815  54.0148081   2.2513567  62.7500378  53.7461075
  11.4589388  53.2509166  51.1722390  11.6638981  53.1831474  52.0179387
  11.1315812  54.0567987  51.1043567  11.4404636  53.3595106  51.2882045
   6.1565539  60.5789734  52.9131358   5.8528677  60.0245722  53.5141765
   5.4544960  60.7581944  52.4259392   6.0081749  60.5234516  52.9301063
   5.2131636  57.8890254  47.4776059   5.4891370  57.1709166  47.0653627
   5.8130305  58.4875174  47.2697166   5.3424901  57.8710625  47.3856821
  14.7123076  53.8040930  50.6525155  14.0997389  54.2911332  51.0378887
  14.8087251  53.1284421  51.1962806  14.6360973  53.7759239  50.7904013
   8.7142157  55.5603771  45.7522655   9.1685903  55.7314332  46.4770499
   9.1882202  54.9471882  45.3520430   8.8510477  55.4954657  45.7996416
   2.2357682  65.0452097  55.0825393   1.6445615  65.6861595  55.0528408
   2.9978706  65.4689715  55.0556693   2.2605943  65.2027936  55.0740540
   2.6318305  56.2054095  55.7493411   3.0919786  56.2793024  56.4868534
   2.6774412  57.0035349  55.3993232   2.7068860  56.3348242  55.8066167
   4.2801655  56.8720790  60.3165438   3.8887220  56.2254137  60.7521216
   4.4487517  57.4632225  60.9359693   4.2472565  56.8635058  60.4728144
  18.3548104  64.8757867  56.0802671  18.4131227  65.3244516  56.8262648
  17.7214571  65.2856680  55.6432751  18.2699399  65.0031602  56.1255220
  11.9947198  70.4961409  52.5157417  11.7966887  70.9852223  51.8213629
  11.3734909  70.7002650  53.0941551  11.8734763  70.5977947  52.4980641
   6.0555177  62.2646306  46.8567662   6.7997222  62.6520582  47.0950612
   6.2015873  61.4203731  47.0208150   6.1865762  62.1976778  46.9161631
   7.9734752  54.0596565  51.8899523   7.1270797  54.2319372  51.7640873
   7.9705885  53.2545908  52.2265351   7.8481902  53.9657594  51.9210650
   9.0433053  57.8371779  52.7561581   8.5693007  57.3113541  53.2666892
   9.4151188  57.2901252  52.1876443   9.0282941  57.6787776  52.7476728
  15.3069783  62.8974155  54.1668362  15.0668006  62.0580570  54.1710788
  15.7861790  62.9774321  54.8909135  15.3421967  62.7855554  54.2743164
  10.9716552  58.7308334  45.8187335  10.4439571  58.8137078  45.1293044
  11.4312260  59.4726205  45.8151980  10.9618403  58.8528996  45.7162030
  17.3074970  59.6775612  52.1197621  17.0684740  59.6371446  51.2818405
  17.4708871  60.5246764  52.2463342  17.2965274  59.7967697  52.0151103
  13.9121000  64.0625561  58.0502666  14.6355199  63.6098088  57.8713686
  13.6470963  64.3430227  57.2674994  13.9802274  64.0376530  57.9081381
   2.7807869  58.6585735  54.7855545   2.1560939  58.6704127  54.1781498
   2.4453464  59.1345910  55.4346785   2.6393360  58.7304252  54.7912114
   2.9649617  57.0010853  40.8428230   2.6162422  57.6530578  41.3059779
   2.4846063  56.9867966  40.1152101   2.8419861  57.0953907  40.8039321
  10.5253635  67.3011897  44.9496992  11.2487834  67.7670010  44.8061565
  10.0854226  67.3685507  44.1994589  10.5669327  67.3795734  44.8181773
   9.6939790  64.1609439  56.1997681   9.0796783  63.6167490  56.4946316
  10.2107075  63.6473676  55.7203497   9.6795452  64.0045848  56.1721909
   8.9336087  65.2313709  53.9341980   8.5063695  64.6063428  53.5007415
   8.9261031  64.9488631  54.7600987   8.8695228  65.0966490  53.9921807
   2.0498614  60.2678882  57.0030414   2.2092101  59.5122207  57.4082135
   1.8691508  60.8169822  57.6571151   2.0463973  60.2372696  57.1593120
   9.9918917  52.4340118  57.5581203   9.4959478  52.6303792  56.8672770
  10.7487979  52.8332786  57.3870005  10.0305742  52.5217852  57.4301340
   7.2621797  56.1082464  54.1484514   7.2864284  55.5742576  53.4597294
   7.5133270  55.5999773  54.8110104   7.3031715  55.9543368  54.1449158
   3.5423119  54.8353282  53.5290258   3.5821490  55.3362489  54.2424965
   2.7172783  54.9263676  53.2596181   3.4262645  54.9235099  53.5940796
   4.9637482  61.3513792  55.8264157   4.1329412  61.5187610  55.6199405
   4.9088999  60.9749743  56.6113042   4.8326897  61.3203523  55.9112685
   2.7721265  54.8422685  61.4620568   3.3973969  54.2984818  61.7350000
   2.3171745  54.3617603  60.8928358   2.7969526  54.6912166  61.4182161
   3.3373526  59.6269384  46.3554275   3.4776487  60.1241848  47.0582916
   3.8356059  58.9255678  46.4968488   3.4314607  59.5971362  46.4805854
   3.3673748  60.4936495  43.6846851   4.0018828  61.0896920  43.6196313
   3.4499359  60.1939952  44.4992722   3.4730299  60.5377403  43.7949938
  16.3456314  63.0251972  56.5533216  16.9374154  63.6649223  56.5851414
  16.7815309  62.3275009  56.8425282  16.4974745  63.0170322  56.6014048
   4.9452731  56.4250470  43.6592293   5.2668572  55.9453553  43.0051556
   5.2079675  57.2350116  43.4683105   5.0318757  56.4740368  43.5347785
   8.1749704  67.4469344  57.1791110   7.6674795  68.0005191  57.6231740
   7.8776350  67.5077634  56.3609884   8.0554589  67.5375656  57.1239566
  10.3411886  55.8122664  56.0215772  10.7666958  55.3595190  55.4099299
   9.7268879  55.2582735  56.2980560  10.3140532  55.6636640  55.9720798
   8.7806109  52.2837764  49.4306350   8.1374427  52.1335410  49.9991488
   8.4405516  52.0380109  48.6655454   8.6351186  52.2249886  49.4009365
  13.3705456  60.2397191  48.8536358  12.6996645  60.7826893  48.7249424
  14.0645206  60.7092046  48.6118053  13.3734323  60.3895462  48.7991886
  13.5333583  56.6953074  51.7626731  13.8861193  56.2682797  52.4372530
  12.6748385  56.6103918  51.8927808  13.4583028  56.6197815  51.8821742
   2.2317268  59.3260594  49.8209578   1.5129257  59.7424726  50.0882441
   2.6029630  59.8914833  49.2701216   2.1809200  59.4709875  49.7792385
  11.5316849  59.9588443  55.7111574  11.5114776  59.7771738  56.5646352
  11.5796050  60.8300461  55.6871157  11.5351490  60.0604981  55.8334868
   9.4763179  66.5475635  61.6360050   9.4359034  65.9025312  61.0505206
  10.2886497  66.4912252  61.9485462   9.5906332  66.4434602  61.5956999
   8.0063842  58.3658594  45.1582957   7.4128682  58.6875590  44.6067524
   8.0439120  57.5199689  44.9504063   7.9238232  58.2882922  45.0465729
  14.9657643  51.8171486  52.6911044  14.4588508  51.1100626  52.6232221
  15.7625077  51.4864675  52.8212120  15.0084882  51.6644637  52.7010039
  10.8821659  58.3238098  48.5884708  10.6535352  58.3470800  47.7463066
  11.1419735  57.4995565  48.7079718  10.8867847  58.2054178  48.4809905
   5.1640887  60.1772571  58.1909808   4.6519791  59.5693754  58.5494839
   4.9920384  60.8929164  58.6583784   5.0630524  60.1935871  58.3126031
   3.9366421  56.8614645  49.8838903   4.4123788  57.2231724  49.2489084
   3.4355021  57.5171112  50.1639046   3.9331780  57.0108833  49.8315644
  17.1677783  66.3336413  45.6751908  17.5511389  67.0827769  45.9050005
  16.3721896  66.5802232  45.4163897  17.1071565  66.4806107  45.6709482
   9.0409958  58.0996816  60.6312063   9.5981388  57.8710626  59.9990529
   8.7171023  58.8602482  60.3547276   9.0756368  58.1780653  60.4968560
   6.7593075  61.1864469  61.5964070   7.5104402  61.5016146  61.9103625
   6.9515652  60.9843640  60.7697992   6.8984489  61.2031851  61.5207466
   5.9793075  59.0055844  43.2512287   6.3592039  59.0235474  42.4663402
   5.2385671  59.4509833  43.1303134   5.9261912  59.0737619  43.1175855
  13.6078365  57.3138036  48.8387866  13.6072592  57.1586692  49.6972142
  13.4034545  58.1601023  48.7829251  13.5778143  57.4158656  48.9575805
  11.3319217  61.9935537  52.4924073  11.8272883  61.2758532  52.4528093
  10.5218993  61.6906335  52.3778560  11.2863111  61.8433184  52.4697799
   6.7777829  65.8433351  44.6421077   5.9689151  65.5200024  44.5954387
   7.2852738  65.1366573  44.5749326   6.7327496  65.6914667  44.6251372
  13.3971036  64.7439225  55.1801201  13.8226108  64.2213647  54.6271627
  13.0327956  65.3420062  54.6589824  13.4057639  64.7549452  55.0210211
   9.9849636  68.4573489  51.5102359  10.4560814  69.1713752  51.6792344
  10.3209814  67.8572239  52.0462228  10.1044751  68.4744953  51.6134735
   6.9019131  53.2300960  58.4660454   7.0347036  52.4331953  58.7941429
   7.2864283  53.7567363  59.0458729   6.9775459  53.1900876  58.6003957
  10.6223582  68.2491423  58.2730052  10.0744528  67.6249307  58.0050117
  11.0836611  68.4385695  57.5574131  10.6090791  68.1850474  58.1280483
   9.9751486  50.1531286  55.0641547   9.1697449  50.0429016  55.3809385
   9.8458221  50.2543742  54.2071413   9.8371619  50.1514956  54.9849587
  13.4317446  56.3176778  55.6581244  12.8480435  56.8185984  55.2458811
  13.7521740  55.8106334  55.0245567  13.3930622  56.3168613  55.5039751
   5.9712245  55.2317373  45.9339919   6.7927940  55.4015685  45.6921614
   5.5081896  55.3864634  45.2106216   6.0243408  55.2799106  45.7911563
   4.5607577  53.2260135  56.7138348   5.1051990  52.8851262  57.3042689
   4.6144513  54.0845596  56.8559632   4.6496697  53.3015394  56.8220221
  10.1881908  69.2542496  54.8039393  11.0080282  69.1105462  55.0655688
   9.9075986  69.8788695  55.3455831  10.2678652  69.3252848  54.9227332
  16.5871030  70.8462064  51.4925583  16.2574360  71.2973208  50.8229281
  15.9116032  70.7678228  52.0398589  16.4381467  70.9013200  51.4748806
  23.7947438  66.8347587  49.7375193  23.4800879  67.5251066  50.1695616
  23.2774380  66.7792370  49.0360694  23.6711908  66.9282476  49.6972142
  14.7926984  68.9074353  46.9748530  15.5472952  69.2752670  46.7365581
  14.6154519  69.2813907  47.7427710  14.8781463  69.0172541  47.0533419
  28.0861883  75.0568793  55.0196070  27.2490304  75.1270980  55.2543664
  28.0550114  75.0593288  54.1470372  27.9580165  75.0679020  54.9255618
  13.1484049  71.3144672  43.6726643  12.9659622  71.5316553  42.8467636
  14.0109662  71.4283684  43.7285258  13.2488638  71.3634570  43.5581130
  18.8283768  68.3171082  46.7075667  19.5569929  68.1387037  46.2613824
  18.9178661  69.1589162  46.9182845  18.9490430  68.4154961  46.6729185
  25.7669723  70.1211575  53.6039792  26.4095631  70.1909680  54.1901707
  26.0192744  69.4540798  53.1019334  25.8991855  70.0337924  53.6167071
  21.0021005  71.2148546  51.3150745  20.2977332  70.7257732  51.4734664
  21.0505980  71.2271021  50.4439190  20.9051057  71.1438194  51.2090085
  28.2051225  74.8956212  49.3351756  27.9487790  74.0836154  49.1449638
  29.0480539  74.9033779  49.1081943  28.2917251  74.7768210  49.2736573
  22.3854318  68.8355836  54.0727910  22.7664829  68.1534007  54.4595784
  21.5817602  68.5465438  53.8903574  22.3230779  68.6922885  54.1031966
  16.3446158  71.3410035  63.9390518  16.0299599  72.1109597  63.6760081
  16.0236090  70.7780291  63.3542745  16.2505077  71.3720303  63.8131868
  13.8978055  69.7300556  49.5536715  13.0300480  69.8023155  49.6194324
  14.1853259  70.5322635  49.7424690  13.8117803  69.8594703  49.5911481
  23.0210944  69.8778415  57.8848036  23.7664536  69.6888226  57.4711462
  22.6048248  70.4036653  57.3261893  23.0695918  69.9280561  57.7412610
  30.3973214  77.2487644  52.8353541  30.9481136  76.6155713  53.0750633
  30.3817330  77.7803037  53.5269046  30.4758411  77.2336592  52.9732400
  24.1001621  75.4883978  51.9458138  23.7566387  74.7674313  52.2965387
  24.1994663  75.2797829  51.1036496  24.0643664  75.3508181  51.8729818
  22.6192586  73.4075562  53.8217681  21.7803687  73.4336841  53.5855944
  22.6896953  74.0546298  54.4023027  22.5060980  73.5071688  53.8726797
  21.0661864  70.3060939  48.5545296  21.7688217  70.1068688  48.0765255
  20.8006053  69.5336882  48.8614140  21.1308497  70.1623905  48.5290738
  15.8290421  71.5696225  57.6076177  15.6373618  71.5851359  58.4575601
  16.6789017  71.7659899  57.5842832  15.9266143  71.6010576  57.7299472
  18.7394648  71.7651734  57.8148000  19.1967262  72.4975708  57.9420792
  18.8150976  71.3418199  58.5735256  18.8185618  71.8108972  57.9449077
  23.2121974  64.9441609  51.6841843  23.3305542  65.4018072  50.9509146
  23.0384149  64.1386870  51.3978061  23.2041145  64.8935381  51.5342777
  20.7884809  73.6892476  57.6373162  21.0026778  73.0503390  57.0836516
  20.1718708  74.1338300  57.2081024  20.7290138  73.6602619  57.4923593
  22.9523897  75.2981541  58.5756469  22.1400578  74.9907431  58.6569642
  23.4113831  74.8180541  59.1399182  22.9004281  75.1818033  58.6711063
  20.1799537  66.7992411  52.6260505  19.3093095  66.7731133  52.5793814
  20.4339879  66.6269604  51.8086351  20.0893097  66.7702555  52.4980642
  17.2048678  68.8098640  54.0833975  16.6887166  68.1178831  54.2085554
  16.6442607  69.4769417  54.0296574  17.0455191  68.8061897  54.0940041
  19.2740911  69.3491600  55.9126828  18.8872664  69.3740631  56.6940358
  18.7873849  68.7833279  55.4601345  19.1453420  69.2687351  55.9614732
  18.9398053  66.2358585  58.2037088  19.5691171  66.7718885  57.9258158
  19.1083916  66.1435944  59.0550654  19.0575848  66.3019948  58.2885616
  18.7411968  71.0229780  60.4763499  19.5685397  70.7514929  60.5322114
  18.7619814  71.8190622  60.8327318  18.8664818  71.1009534  60.5378682
  22.4321972  68.7694474  51.1722390  22.6371565  68.7016782  52.0179387
  22.1048395  69.5753295  51.1043567  22.4137219  68.8780414  51.2882045
  25.6855659  69.3226238  50.6525155  25.0729973  69.8096640  51.0378887
  25.7819834  68.6469729  51.1962806  25.6093557  69.2944547  50.7904013
  19.6874740  71.0789079  45.7522655  20.1418487  71.2499640  46.4770499
  20.1614786  70.4657190  45.3520430  19.8243060  71.0139964  45.7996416
  18.9467336  69.5781873  51.8899523  18.1003381  69.7504680  51.7640873
  18.9438468  68.7731216  52.2265351  18.8214486  69.4842901  51.9210650
  20.0165636  73.3557087  52.7561581  19.5425590  72.8298849  53.2666892
  20.3883772  72.8086560  52.1876443  20.0015525  73.1973084  52.7476728
  21.9449136  74.2493642  45.8187335  21.4172154  74.3322385  45.1293044
  22.4044844  74.9911513  45.8151980  21.9350986  74.3714304  45.7162030
  28.2807554  75.1960920  52.1197621  28.0417324  75.1556754  51.2818405
  28.4441455  76.0432072  52.2463342  28.2697857  75.3153005  52.0151103
  20.9651501  67.9525426  57.5581203  20.4692062  68.1489100  56.8672770
  21.7220563  68.3518094  57.3870005  21.0038325  68.0403160  57.4301340
  18.2354380  71.6267772  54.1484514  18.2596867  71.0927884  53.4597294
  18.4865854  71.1185081  54.8110104  18.2764299  71.4728676  54.1449158
  14.5155702  70.3538590  53.5290258  14.5554074  70.8547797  54.2424965
  13.6905367  70.4448984  53.2596181  14.3995228  70.4420406  53.5940796
  13.7453849  70.3607993  61.4620568  14.3706552  69.8170126  61.7350000
  13.2904329  69.8802910  60.8928358  13.7702110  70.2097474  61.4182161
  15.9185315  71.9435778  43.6592293  16.2401156  71.4638860  43.0051556
  16.1812259  72.7535424  43.4683105  16.0051340  71.9925676  43.5347785
  21.3144470  71.3307972  56.0215772  21.7399541  70.8780498  55.4099299
  20.7001463  70.7768043  56.2980560  21.2873115  71.1821948  55.9720798
  19.7538693  67.8023072  49.4306350  19.1107011  67.6520718  49.9991488
  19.4138100  67.5565417  48.6655454  19.6083770  67.7435194  49.4009365
  24.5066167  72.2138382  51.7626731  24.8593777  71.7868105  52.4372530
  23.6480968  72.1289226  51.8927808  24.4315611  72.1383123  51.8821742
  25.9390227  67.3356794  52.6911044  25.4321091  66.6285934  52.6232221
  26.7357660  67.0049983  52.8212120  25.9817466  67.1829945  52.7010039
  21.8554243  73.8423406  48.5884708  21.6267936  73.8656108  47.7463066
  22.1152319  73.0180873  48.7079718  21.8600431  73.7239486  48.4809905
  24.5810949  72.8323344  48.8387866  24.5805175  72.6772000  49.6972142
  24.3767129  73.6786331  48.7829251  24.5510727  72.9343964  48.9575805
  17.8751714  68.7486268  58.4660454  18.0079620  67.9517261  58.7941429
  18.2596867  69.2752671  59.0458729  17.9508043  68.7086184  58.6003957
  20.9484069  65.6716594  55.0641547  20.1430033  65.5614323  55.3809385
  20.8190805  65.7729050  54.2071413  20.8104202  65.6700264  54.9849587
  24.4050030  71.8362086  55.6581244  23.8213019  72.3371292  55.2458811
  24.7254324  71.3291642  55.0245567  24.3663205  71.8353921  55.5039751
  16.9444829  70.7502681  45.9339919  17.7660523  70.9200993  45.6921614
  16.4814480  70.9049942  45.2106216  16.9975991  70.7984414  45.7911563
  15.5340161  68.7445443  56.7138348  16.0784574  68.4036570  57.3042689
  15.5877097  69.6030904  56.8559632  15.6229280  68.8200702  56.8220221
   4.4081215  22.8114863  34.7022316   4.3775220  23.6659500  34.8740585
   5.0062564  22.5110156  35.2608460   4.4918373  22.8931360  34.8097118
   0.9174617  28.1677040  49.0635703   1.6241384  27.6729070  49.1922637
   1.1062552  28.6086121  48.3338361   1.0502522  28.1595390  48.9744748
   2.2297790  25.3867165  32.9740626   2.1137316  26.1374851  33.4032764
   3.0253677  25.1291118  33.2236713   2.3302379  25.4602012  33.0744717
   1.5433095  12.7355103  36.6715240   1.2286536  13.4258581  37.1035663
   1.0260036  12.6799885  35.9700741   1.4197565  12.8289991  36.6312189
   6.3393582  28.3105908  38.1585695   5.5091285  28.5216552  38.3219112
   6.2902834  27.4842963  37.8827979   6.2100317  28.2195514  38.1423061
   5.8347540  20.9576309  41.9536117   4.9975961  21.0278496  42.1883711
   5.8035771  20.9600803  41.0810419   5.7065822  20.9686536  41.8595665
   0.5577726  25.1531985  37.5448008   1.3135241  25.5863500  37.5836917
   0.6640050  24.5036755  38.1182644   0.6847896  25.1209469  37.6346034
   3.5957897  28.9805262  38.2950411   3.1593129  28.9842005  39.0509382
   3.2620812  29.6610761  37.8629988   3.4820517  29.0817718  38.3431244
   3.5155380  16.0219090  40.5379839   4.1581288  16.0917195  41.1241754
   3.7678400  15.3548313  40.0359381   3.6477512  15.9345439  40.5507118
   6.7302243  25.6986182  37.1870048   7.3918677  25.1376851  37.0865957
   6.0893655  25.2038213  37.5122739   6.7331110  25.5422591  37.2202388
   3.0167074  26.7151565  36.9282037   3.2522663  26.8596764  36.1008888
   3.1656637  27.4793973  37.3213551   3.0732877  26.8490619  36.8645641
   4.8457530  25.5553231  34.7651641   5.1765747  26.0880871  34.1591736
   5.4190618  25.6092118  35.4213592   4.9791209  25.6422799  34.7729423
   5.9536882  20.7963727  36.2691802   5.6973447  19.9843669  36.0789685
   6.7966196  20.8041295  36.0421990   6.0402907  20.6775725  36.2076620
   3.6362041  27.9513324  46.1050355   3.4000679  27.1201388  45.9862416
   4.2805270  27.8998931  46.6905199   3.6956712  27.8211012  46.1736249
   4.6598462  27.7357772  42.1678650   4.3544279  28.4685829  42.5291965
   3.9404677  27.3295702  41.8871436   4.5085804  27.7839505  42.1791787
  10.3600254  24.3750773  41.4946994  10.2924754  24.3946732  40.6249580
  10.3455916  25.2181100  41.7202664  10.3479010  24.5024508  41.3999471
   8.1458871  23.1495159  39.7693588   8.6966793  22.5163228  40.0090680
   8.1302987  23.6810552  40.4609092   8.2244068  23.1344107  39.9072446
   1.8487278  21.3891493  38.8798184   1.5052043  20.6681828  39.2305434
   1.9480320  21.1805344  38.0376543   1.8129320  21.2515696  38.8069864
   2.3100307  27.8517197  34.4222173   2.8758339  28.5110407  34.3380715
   1.6628210  28.1966895  34.8938575   2.2979063  27.9999138  34.4794929
   4.2435767  24.5151064  38.0418969   4.1569741  24.6706490  38.8953748
   3.7886247  25.1589140  37.6678374   4.1639023  24.6326819  38.1126076
   2.0109632  28.5445171  40.4531310   1.8723991  29.2426217  40.9580052
   1.2309630  28.3893827  40.0967492   1.8752858  28.6245337  40.4757584
   3.5063004  27.9023425  31.2147809   3.1269813  27.1160563  31.2077098
   2.8429250  28.4510282  31.0719453   3.3521479  27.8668249  31.1928606
   1.7523103  30.1468916  31.5499495   1.8342941  30.9535902  31.2260946
   2.2372845  30.1664875  32.2740268   1.8360261  30.2689578  31.6086394
   1.2598304  28.9066334  51.6317821   2.0733169  28.6351483  51.7922953
   1.0993270  28.6073874  50.8278017   1.3568252  28.8221260  51.5363227
   2.9976548  21.8161770  41.4706577   2.5704156  21.7288119  40.7154677
   2.3602601  21.9239546  42.0561421   2.8406155  21.8194430  41.4452019
   1.3273804  30.6592432  43.5446018   2.1166182  30.3081497  43.6648100
   1.5017402  31.4728821  43.2822652   1.4694086  30.7278290  43.5233886
   3.4341316  15.2233753  37.5865202   2.8215630  15.7104156  37.9718934
   3.5305491  14.5477244  38.1302853   3.3579214  15.1952062  37.7244060
   7.0766344  26.2950690  43.0142718   7.1349468  26.7437339  43.7602695
   6.4432812  26.7049503  42.5772798   6.9917639  26.4224425  43.0595266
   4.0288023  24.3166978  41.1008408   3.7886246  23.4773393  41.1050835
   4.5080031  24.3967145  41.8249182   4.0640207  24.2048378  41.2083211
   6.0293210  21.0968435  39.0537668   5.7902980  21.0564269  38.2158452
   6.1927112  21.9439587  39.1803389   6.0183514  21.2160520  38.9491149
   2.6339241  25.4818384  44.9842713   3.3573439  25.0290911  44.8053733
   2.3689203  25.7623050  44.2015041   2.7020514  25.4569353  44.8421428
   5.0674555  24.4444795  43.4873262   5.6592395  25.0842046  43.5191460
   5.5033549  23.7467832  43.7765329   5.2192986  24.4363146  43.5354095
   2.0923696  21.6590014  35.7876405   1.4214886  22.2019716  35.6589470
   2.7863446  22.1284869  35.5458100   2.0952563  21.8088285  35.7331933
   2.2551823  18.1145897  38.6966778   2.6079434  17.6875620  39.3712577
   1.3966625  18.0296741  38.8267855   2.1801268  18.0390638  38.8161789
   3.6875884  13.2364309  39.6251091   3.1806748  12.5293449  39.5572268
   4.4843317  12.9057498  39.7552167   3.7303123  13.0837461  39.6350086
   5.8896023  27.7529236  32.6091955   6.2729629  28.5020592  32.8390052
   5.0940137  27.9995056  32.3503944   5.8289806  27.8998930  32.6049529
   2.3296606  18.7330859  35.7727913   2.3290832  18.5779515  36.6312189
   2.1252786  19.5793846  35.7169298   2.2996383  18.8351480  35.8915852
   2.1189276  26.1632048  42.1141248   2.5444348  25.6406470  41.5611673
   1.7546196  26.7612886  41.5929871   2.1275879  26.1742275  41.9550258
   0.7944860  31.4867626  50.6234478   0.9041826  30.6976186  50.9791225
   1.1235757  31.3973562  49.8208816   0.8597266  31.3573479  50.5576869
   2.1535687  17.7369601  42.5921291   1.5698675  18.2378808  42.1798858
   2.4739981  17.2299157  41.9585614   2.1148862  17.7361436  42.4379798
  15.3813799  38.3300171  34.7022316  15.3507803  39.1844808  34.8740585
  15.9795148  38.0295464  35.2608460  15.4650957  38.4116668  34.8097118
   8.5813484  37.4175822  39.4575246   7.7251379  37.5784320  39.5084363
   8.6281137  36.5467886  39.4780307   8.4612595  37.3126624  39.4681312
   2.9654623  46.9538540  35.2212478   2.2137523  46.5754078  34.9928523
   3.4140635  46.9856973  34.4731288   2.9204290  46.9024147  35.0769980
  11.8907200  43.6862348  49.0635703  12.5973968  43.1914378  49.1922637
  12.0795136  44.1271429  48.3338361  12.0235106  43.6780698  48.9744748
   8.4179583  47.3763909  30.6498025   8.0830952  48.0540831  30.2142247
   8.9306454  46.9869221  30.0614897   8.4445164  47.4188488  30.4984817
   7.9583875  49.3278178  36.5909137   8.3423254  49.8965077  36.0513912
   7.8943016  48.6027688  36.1114953   8.0057302  49.3053641  36.4402999
  11.4265305  39.4767866  42.1006898  11.9721265  40.1552953  42.1600868
  11.3682181  39.3355327  41.2408480  11.4981219  39.5559868  41.9818959
   4.5439380  46.9656932  37.4875250   4.6449743  46.1557286  37.7972378
   3.9481125  46.8713878  36.8574929   4.4711918  46.8321960  37.4401489
  13.2030373  40.9052473  32.9740626  13.0869899  41.6560159  33.4032764
  13.9986260  40.6476426  33.2236713  13.3034963  40.9787320  33.0744717
   4.3840119  51.8834521  38.8890107   5.0277575  52.3247685  39.2786265
   4.7096375  51.0787947  38.8020365   4.5271948  51.8299716  38.9335584
   5.0860699  44.8946496  34.2609968   5.4076540  45.4351703  33.6571276
   5.7332795  44.3243267  34.3932258   5.2286754  44.8905671  34.1917004
   7.1362407  36.8962491  34.3444355   7.8342572  37.0750618  34.8365818
   7.4514740  36.3732830  33.7214744   7.2857744  36.8456263  34.3246365
   7.3250342  43.2832936  34.3324146   7.7643978  42.6750036  34.7778919
   7.1755005  42.9040309  33.5609611   7.3671808  43.1371407  34.2843314
   4.7921985  41.8776948  41.5342972   5.4370988  41.3849391  41.2153920
   5.0323762  42.0201734  42.3609050   4.9232570  41.8254390  41.6092505
   7.3308077  44.7231854  41.1849864   7.6131320  43.9283259  40.9636620
   8.0594237  45.2012441  41.2054925   7.4797640  44.6766451  41.1552880
   5.3089271  32.2654888  38.4265630   4.9792601  32.7166031  37.7569328
   4.6334272  32.1871051  38.9738636   5.1599707  32.3206023  38.4088853
  10.9259679  41.6360117  31.2854916  10.8410974  42.4921084  31.4304484
  11.4144062  41.3604441  31.9537075  10.9848576  41.7217439  31.4056997
  12.5165678  28.2540411  36.6715240  12.2019119  28.9443889  37.1035663
  11.9992620  28.1985193  35.9700741  12.3930149  28.3475299  36.6312189
  11.8578112  38.2544911  32.7852651  11.3289584  38.4704545  33.4449957
  12.3803132  38.9481050  32.7053620  11.8566565  38.3888048  32.8708250
  17.3126165  43.8291216  38.1585695  16.4823868  44.0401860  38.3219112
  17.2635417  43.0028270  37.8827979  17.1832900  43.7380822  38.1423061
   3.7477720  42.1508128  31.5860119   3.1634935  42.6558160  31.9925983
   3.3447815  41.9250515  30.8456711   3.6017024  42.1916377  31.5365144
   5.3735903  46.6595070  40.9933605   4.8562844  46.3002485  40.3894913
   6.0710294  46.1357244  41.0039671   5.4001484  46.5292758  40.9063863
   9.0299495  47.1089884  46.9549778   9.1182840  46.9216025  47.8027988
   9.4589207  46.4627314  46.5554625   9.1061597  46.9852892  47.0221529
   6.5969954  46.3921044  45.9367440   6.0340789  45.9793654  46.4607101
   7.3590978  46.3173950  46.3560583   6.6264403  46.3198445  46.0760440
   8.2054934  38.3973780  30.0629039   8.4450938  38.6051764  29.2504382
   8.5270775  37.5931289  30.1717984   8.2892092  38.3087882  29.9589592
   3.5145225  30.3267176  33.9088577   4.2691193  30.6945493  33.6705627
   3.3372759  30.7006730  34.6767757   3.5999703  30.4365364  33.9873466
   2.1565946  48.3819065  38.5404070   2.8586525  47.8671054  38.5976827
   2.0763429  48.7093217  39.3450945   2.2489706  48.3533291  38.6676862
  16.8080123  36.4761617  41.9536117  15.9708544  36.5463804  42.1883711
  16.7768354  36.4786111  41.0810419  16.6798406  36.4871844  41.8595665
   3.2044852  38.6194652  47.6684485   3.3765356  38.5100547  48.5169767
   3.7414210  39.2649058  47.4315678   3.3089856  38.6986654  47.7589582
   1.8702289  32.7337495  30.6066690   1.6877863  32.9509376  29.7807683
   2.7327902  32.8476508  30.6625305   1.9706879  32.7827393  30.4921177
   1.4816721  44.5725417  38.0489678   2.3205621  44.8048350  38.0963440
   1.5128490  43.7029729  37.9796714   1.6098439  44.4782364  38.0454323
   2.1069424  44.9926292  42.3502984   2.6467649  44.8497423  43.0206356
   1.4239371  45.3923043  42.7187010   2.0861578  45.0305963  42.5037405
   7.5502009  29.7363906  33.6415714   8.2788169  29.5579861  33.1953870
   7.6396901  30.5781985  33.8522892   7.6708671  29.8347784  33.6069232
  11.5310309  40.6717293  37.5448008  12.2867824  41.1048807  37.5836917
  11.6372634  40.0222063  38.1182644  11.6580480  40.6394777  37.6346034
  14.5690480  44.4990570  38.2950411  14.1325712  44.5027313  39.0509382
  14.2353396  45.1796069  37.8629988  14.4553100  44.6003026  38.3431244
   9.1419554  46.5398903  49.6193561   9.9259971  46.6529751  49.9849303
   8.9416148  45.7140040  49.8152247   9.2285579  46.4345623  49.7027947
  14.4887963  31.5404398  40.5379839  15.1313872  31.6102503  41.1241754
  14.7410984  30.8733621  40.0359381  14.6210095  31.4530747  40.5507118
   1.4164316  36.0111668  29.1189163   0.7022493  35.7249847  29.5311596
   1.9008285  36.3508293  29.7595551   1.3823680  36.0193317  29.2744798
   2.2605176  34.7504962  45.1504413   1.5676972  34.2801941  45.3965144
   2.8765503  34.5243266  45.7246120   2.2489706  34.6472093  45.2713566
   9.2989947  48.4509005  43.2660017   8.5005193  48.2108505  43.5233886
   9.7475959  48.5023398  44.0127065   9.2464558  48.4231396  43.4144941
   8.5911634  44.5141622  29.4950972   9.0062783  44.1826645  28.8035467
   7.7603564  44.2810524  29.3671108   8.5299643  44.4312878  29.3741819
  13.9899657  42.2336873  36.9282037  14.2255246  42.3782072  36.1008888
  14.1389221  42.9979281  37.3213551  14.0465460  42.3675927  36.8645641
   0.9845735  38.7170366  46.2931258   1.7085707  38.7023396  46.7796153
   1.0861871  39.4265721  45.7953226   1.1063944  38.8195069  46.2910045
  15.8190114  41.0738539  34.7651641  16.1498331  41.6066179  34.1591736
  16.3923202  41.1277426  35.4213592  15.9523793  41.1608107  34.7729423
   8.3590684  42.1969450  51.1580205   7.5663665  42.5112962  51.3432825
   8.4739611  42.4120919  50.3200990   8.2586095  42.2753287  51.0618540
  11.0322003  38.9203441  35.4475221  11.1268857  39.6592735  35.9014846
  10.4080847  38.4920917  35.8809785  10.9531033  38.9664762  35.5783368
   9.2874477  42.0989654  46.0965502   9.8613339  41.4616898  46.2514066
   9.2089281  42.0993736  45.2275159   9.3607712  42.0054765  45.9911913
  11.2845024  40.7652181  28.6812173  11.2025187  40.8354368  29.5467160
  11.9224745  41.3281925  28.4895914  11.3664862  40.8591152  28.7802122
   4.6438196  40.5312919  38.1486699   4.3857440  39.6984654  38.1217999
   4.6986678  40.7570532  37.3079200   4.6137973  40.4410690  38.0206836
   9.7239246  32.6341370  38.2490792   9.0195572  32.1450555  38.4074711
   9.7724220  32.6463844  37.3779236   9.6269297  32.5631018  38.1430132
   3.6172908  38.0850681  38.6351594   3.0422499  38.2442850  39.2715555
   3.2408584  37.4486091  38.1720045   3.4775720  38.0148494  38.6606152
   7.2846196  36.5574031  43.4943972   6.8960629  36.1328248  42.8396164
   6.6200895  36.8056180  44.0020999   7.1293124  36.5312752  43.4731840
  16.9269465  36.3149035  36.2691802  16.6706030  35.5028977  36.0789685
  17.7698779  36.3226603  36.0421990  17.0135491  36.1961033  36.2076620
  11.1072558  30.2548660  41.0067957  11.4883070  29.5726831  41.3935831
  10.3035842  29.9658262  40.8243621  11.0449020  30.1115708  41.0372013
   8.3885135  40.7872635  31.6920779   9.2025773  41.0787528  31.5803551
   8.3244276  40.1332498  31.1179072   8.4987874  40.7337830  31.5909617
  14.6094625  43.4698631  46.1050355  14.3733262  42.6386696  45.9862416
  15.2537854  43.4184239  46.6905199  14.6689296  43.3396319  46.1736249
   4.2593043  44.2594153  36.8193092   4.8966990  44.0205900  37.3644885
   4.6848114  44.4631312  36.0846252   4.4169209  44.2545163  36.7910249
   4.8995858  39.4796443  31.1567981   5.2841011  39.2604149  31.9084526
   4.6507478  40.3059388  31.2869057   4.9197930  39.5694589  31.2869057
   5.0664398  32.7602858  50.8730565   4.7517839  33.5302420  50.6100128
   4.7454331  32.1973114  50.2882792   4.9723317  32.7913126  50.7471915
  15.6331045  43.2543080  42.1678650  15.3276862  43.9871137  42.5291965
  14.9137261  42.8481010  41.8871436  15.4818388  43.3024813  42.1791787
   6.6414515  44.7366575  38.4986878   6.7153523  44.5741747  39.3528728
   7.4584021  44.9256765  38.2547359   6.7730873  44.7403318  38.5884903
   2.6196295  31.1493379  36.4876761   1.7518721  31.2215979  36.5534371
   2.9071500  31.9515458  36.6764737   2.5336043  31.2787526  36.5251528
  11.7429184  31.2971239  44.8188083  12.4882776  31.1081049  44.4051509
  11.3266489  31.8229477  44.2601940  11.7914158  31.3473384  44.6752656
   5.1819100  47.7001318  33.2300351   5.4717399  47.3090300  32.5059578
   5.9122581  47.8818023  33.6705626   5.3325985  47.6695132  33.1883158
   5.7713846  42.5019064  44.3153482   5.2725539  43.2134832  44.3938370
   6.5814070  42.8219731  44.2771644   5.8169952  42.6545913  44.3210050
   3.1225016  49.6768701  36.2960501   2.9025312  49.3866056  37.0887168
   2.9019538  49.0183656  35.7678413   3.0572610  49.5368409  36.3349410
   2.0341963  41.7642017  38.5616203   1.7455212  41.1379489  39.0961930
   2.9025311  41.7062305  38.6280883   2.1202215  41.6629562  38.6507157
  12.8219861  36.9076801  38.8798184  12.4784627  36.1867136  39.2305434
  12.9212904  36.6990652  38.0376543  12.7861904  36.7701004  38.8069864
   5.2892972  51.0498091  35.0791193   5.9417030  50.5174533  35.3082219
   4.5918581  50.6966743  35.4659067   5.2823690  50.9187614  35.1703361
   2.2374237  43.4037268  34.4858568   2.9920205  43.7850308  34.6994030
   1.6444849  43.8548412  34.9405264   2.2610950  43.5266096  34.5841446
  13.2832890  43.3702505  34.4222173  13.8490923  44.0295715  34.3380715
  12.6360794  43.7152203  34.8938575  13.2711647  43.5184446  34.4794929
   4.6980904  35.3600109  49.6115780   3.8880679  35.6657888  49.5005622
   5.1755590  36.0805691  49.7268364   4.6484382  35.5114710  49.6122851
   3.5572463  44.5745830  39.8598683   3.0353217  44.7146121  40.5450548
   3.9446484  43.8156494  40.0500800   3.5376164  44.4831354  39.9899759
   9.7539468  46.3141289  33.8459252   9.5126144  45.5809150  33.4386317
   9.9340801  46.8628146  33.1925585   9.7447092  46.2863680  33.6889475
   4.9838789  41.6049849  35.2580174   4.7881572  42.2124583  34.6640477
   5.2073134  40.9117793  34.7771848   4.9873430  41.5927374  35.0996255
   3.3817319  38.4904587  35.3761042   4.1039971  38.6545745  34.9164848
   2.9025312  39.2114252  35.2700382   3.4181050  38.6202816  35.2926656
  11.3410827  34.8268386  40.7557727  10.5021927  34.8529664  40.5195991
  11.4115194  35.4739121  41.3363074  11.2279220  34.9264511  40.8066844
   1.0324936  40.8962659  44.4815182   1.5446033  41.1746912  43.8323942
   0.7461278  41.6351953  44.8477995   1.0659799  41.0465013  44.4405060
   9.7880105  31.7253763  35.4885343  10.4906458  31.5261511  35.0105301
   9.5224293  30.9529705  35.7954187   9.8526737  31.5816729  35.4630785
  15.2168350  40.0336372  38.0418969  15.1302325  40.1891798  38.8953748
  14.7618830  40.6774448  37.6678374  15.1371607  40.1512127  38.1126076
   4.5508661  32.9889048  44.5416224   4.3591858  33.0044182  45.3915647
   5.4007257  33.1852722  44.5182879   4.6484383  33.0203399  44.6639519
   9.0894166  37.3547119  36.6644529   8.8428881  37.2742870  37.4981318
   9.4179289  36.5700587  36.4707056   9.1015410  37.2273385  36.7592052
  12.9842215  44.0630479  40.4531310  12.8456574  44.7611525  40.9580052
  12.2042213  43.9079135  40.0967492  12.8485442  44.1430645  40.4757584
  11.3220300  40.3626854  46.7053692  11.3168339  39.4906671  46.7096118
  12.0281294  40.5615023  46.2323147  11.4265304  40.2630728  46.6360727
   5.0491194  40.0903838  46.0767512   5.1934569  40.6705046  45.4410622
   5.3966842  40.4680135  46.7817366   5.1218655  40.2324542  46.0866507
   7.2211111  39.2894006  43.8592643   6.4734425  39.4825021  43.4540921
   7.3752636  38.4639226  43.6216765   7.1333539  39.1959118  43.7638049
   4.1218949  48.2806610  42.9428538   4.2708512  47.7209526  42.2901943
   4.9018951  48.3598612  43.3261057   4.2593042  48.2092175  42.9025488
  14.4795588  43.4208733  31.2147809  14.1002397  42.6345870  31.2077098
  13.8161833  43.9695590  31.0719453  14.3254063  43.3853557  31.1928606
   6.6472249  48.4521253  44.2213029   6.5715920  47.7830063  44.7763818
   6.5762108  49.1539041  44.7353696   6.6252856  48.4566160  44.3789877
   7.4612888  33.1844557  44.7488047   7.9185502  33.9168531  44.8760839
   7.5369217  32.7611022  45.5075303   7.5403858  33.2301795  44.8789123
  11.9340214  26.3634432  38.6181890  12.0523782  26.8210896  37.8849193
  11.7602390  25.5579694  38.3318108  11.9259385  26.3128204  38.4682824
   7.3042496  46.9722252  35.0536635   8.0692387  46.7031895  34.7319300
   7.2020586  46.4872262  35.7706698   7.4023992  46.8611816  35.1116463
   5.3395266  35.1746661  41.5929871   4.5491341  34.9938121  41.9147207
   5.7355889  34.3973614  41.5760165   5.2812142  35.0334122  41.6382419
   9.8261157  44.0034435  27.0336585  10.5934142  44.0634560  26.6242436
   9.3792466  43.4314877  26.5492903   9.8734584  43.9271011  26.9014295
  10.7238952  42.8089091  39.3189317  10.0483954  42.5774323  39.8202704
  10.7331328  42.2010274  38.6931422  10.6257457  42.6848016  39.3005469
   7.8533096  37.6506920  46.0753370   7.7892237  38.5116877  45.9473507
   7.9930284  37.3338913  45.2748921   7.8648566  37.7307087  45.9381583
  12.7255687  45.6654224  31.5499495  12.8075524  46.4721210  31.2260946
  13.2105429  45.6850183  32.2740268  12.8092845  45.7874886  31.6086394
   6.5352190  40.3439059  40.2169573   6.1114439  40.5443559  39.4808591
   6.3597045  39.4967907  40.3293873   6.4463071  40.2487841  40.1243263
   6.0363884  51.8589572  42.6791030   6.5259814  51.1600362  42.4966695
   5.4648116  51.5613442  43.2667087   6.0248414  51.7115796  42.7392071
   1.8234635  40.8391111  35.6497545   1.9799254  40.7737914  36.5053537
   2.1635228  41.6139663  35.4376225   1.8967870  40.9440309  35.7452140
   8.3613780  40.2148994  34.5190909   8.9029325  39.7119376  34.9829529
   8.6760339  40.1614189  33.7080394   8.4878177  40.1328415  34.4674721
  12.2330887  44.4251642  51.6317821  13.0465752  44.1536791  51.7922953
  12.0725853  44.1259182  50.8278017  12.3300836  44.3406568  51.5363227
   6.5300229  45.6066346  31.8030937   6.5993050  44.7480884  31.9423937
   7.3088685  45.8238227  31.4749961   6.6553080  45.5119210  31.7748094
   9.5103049  35.1085299  44.5713209   9.7245019  34.4696213  44.0176563
   8.8936948  35.5531123  44.1421071   9.4508378  35.0795443  44.4263640
  10.9207717  48.0304047  36.0167430  10.5287509  47.7270762  35.2990296
  11.0760789  48.8673137  35.8272384  10.8861307  48.1087884  35.8823927
  11.6742137  36.7174364  45.5096516  10.8618819  36.4100255  45.5909689
  12.1332072  36.2373364  46.0739228  11.6222522  36.6010857  45.6051110
  11.0847392  44.5954036  35.9573460  10.7262047  44.7668679  36.7337493
  10.5986103  45.0567242  35.4001459  10.9606089  44.6893007  35.9898730
   8.9017778  28.2185235  39.5600552   8.0311336  28.1923956  39.5133861
   9.1558119  28.0462427  38.7426398   8.8111338  28.1895378  39.4320689
   5.8735757  40.2753202  28.4973695   6.1628282  41.0518084  28.7717269
   5.9607556  39.7641933  29.1988194   5.9290013  40.3145120  28.6416193
   8.7695645  38.1234436  50.2925218   9.2395276  38.7476552  50.6793093
   8.8157525  37.4551411  50.8518433   8.8463520  38.1169116  50.4325290
   7.9959152  30.7684423  42.8466875   7.6090905  30.7933455  43.6280405
   7.5092089  30.2026102  42.3941391   7.8671661  30.6880174  42.8954778
  12.2452131  45.4857932  46.9040661  12.8831852  44.9918128  46.5703117
  11.6026223  45.4135333  46.3192888  12.2446358  45.4016941  46.7683016
  13.9709131  37.3347078  41.4706577  13.5436739  37.2473427  40.7154677
  13.3335184  37.4424854  42.0561421  13.8138738  37.3379738  41.4452019
   7.6616293  27.6551409  45.1377135   8.2909411  28.1911709  44.8598205
   7.8302156  27.5628768  45.9890700   7.7794088  27.7212771  45.2225663
   7.4630208  32.4422603  47.4103546   8.2903638  32.1707752  47.4662161
   7.4838054  33.2383445  47.7667364   7.5883058  32.5202358  47.4718729
  12.3006388  46.1777740  43.5446018  13.0898766  45.8266805  43.6648100
  12.4749986  46.9914129  43.2822652  12.4426669  46.2463598  43.5233886
   2.0399698  39.5886466  40.5973807   1.1987705  39.4890340  40.8052701
   2.2489706  40.3581946  40.9488128   1.9464391  39.6878509  40.6801122
  11.1540212  30.1887297  38.1062437  11.3589805  30.1209605  38.9519434
  10.8266636  30.9946118  38.0383614  11.1355460  30.2973238  38.2222092
   5.8516363  37.5167865  39.8471404   5.5479501  36.9623854  40.4481812
   5.1495784  37.6960075  39.3599439   5.7032573  37.4612648  39.8641110
   4.9082460  34.8268385  34.4116106   5.1842194  34.1087298  33.9993674
   5.5081129  35.4253305  34.2037212   5.0375725  34.8088756  34.3196868
   3.9134714  44.7317586  44.5543502   3.8055069  44.7419648  45.4205560
   4.1230496  45.5572366  44.3648456   3.9284825  44.8558661  44.6547594
  14.4073900  30.7419061  37.5865202  13.7948213  31.2289464  37.9718934
  14.5038074  30.0662552  38.1302853  14.3311797  30.7137370  37.7244060
   8.4092981  32.4981903  32.6862701   8.8636727  32.6692463  33.4110546
   8.8833026  31.8850013  32.2860477   8.5461301  32.4332788  32.7336463
   1.9308506  41.9830228  42.0165440   1.3396439  42.6239727  41.9868455
   2.6929530  42.4067846  41.9896739   1.9556767  42.1406067  42.0080587
   2.3269129  33.1432226  42.6833457   2.7870610  33.2171156  43.4208581
   2.3725236  33.9413480  42.3333279   2.4019684  33.2726373  42.7406214
   3.9752479  33.8098921  47.2505485   3.5838044  33.1632268  47.6861262
   4.1438341  34.4010356  47.8699740   3.9423389  33.8013189  47.4068191
  18.0498928  41.8135998  43.0142718  18.1082051  42.2622647  43.7602695
  17.4165395  42.2234811  42.5772798  17.9650223  41.9409733  43.0595266
  11.6898022  47.4339540  39.4497464  11.4917711  47.9230355  38.7553676
  11.0685733  47.6380782  40.0281598  11.5685587  47.5356078  39.4320688
   5.7506001  39.2024437  33.7907709   6.4948046  39.5898713  34.0290658
   5.8966697  38.3581862  33.9548196   5.8816586  39.1354910  33.8501678
   7.6685576  30.9974696  38.8239570   6.8221621  31.1697504  38.6980920
   7.6656709  30.1924039  39.1605398   7.5432726  30.9035725  38.8550697
   8.7383876  34.7749910  39.6901628   8.2643831  34.2491672  40.2006939
   9.1102012  34.2279383  39.1216489   8.7233765  34.6165907  39.6816775
  15.0020607  39.8352286  41.1008408  14.7618830  38.9958701  41.1050835
  15.4812614  39.9152453  41.8249182  15.0372791  39.7233686  41.2083211
  10.6667376  35.6686465  32.7527382  10.1390395  35.7515209  32.0633091
  11.1263084  36.4104336  32.7492026  10.6569227  35.7907127  32.6502077
  17.0025794  36.6153743  39.0537668  16.7635564  36.5749577  38.2158452
  17.1659695  37.4624895  39.1803389  16.9916098  36.7345828  38.9491149
  13.6071824  41.0003692  44.9842713  14.3306023  40.5476219  44.8053733
  13.3421787  41.2808358  44.2015041  13.6753097  40.9754661  44.8421428
   2.4758693  35.5963866  41.7195592   1.8511763  35.6082258  41.1121545
   2.1404287  36.0724041  42.3686832   2.3344184  35.6682383  41.7252160
   2.6600441  33.9388984  27.7768277   2.3113246  34.5908710  28.2399826
   2.1796887  33.9246097  27.0492148   2.5370685  34.0332038  27.7379368
  10.2204459  44.2390028  31.8837039  10.9438658  44.7048141  31.7401612
   9.7805050  44.3063638  31.1334636  10.2620151  44.3173865  31.7521820
   9.3890614  41.0987571  43.1337728   8.7747607  40.5545621  43.4286363
   9.9057899  40.5851807  42.6543544   9.3746276  40.9423980  43.1061956
   8.6286911  42.1691841  40.8682026   8.2014519  41.5441559  40.4347462
   8.6211855  41.8866762  41.6941034   8.5646052  42.0344621  40.9261854
   1.7449438  37.2057014  43.9370460   1.9042925  36.4500338  44.3422182
   1.5642332  37.7547953  44.5911198   1.7414797  37.1750827  44.0933166
   9.6869741  29.3718249  44.4921250   9.1910302  29.5681923  43.8012817
  10.4438803  29.7710917  44.3210051   9.7256566  29.4595983  44.3641387
   6.9572621  33.0460595  41.0824560   6.9815108  32.5120707  40.3937340
   7.2084094  32.5377904  41.7450151   6.9982539  32.8921499  41.0789205
   3.2373943  31.7731413  40.4630305   3.2772314  32.2740620  41.1765012
   2.4123607  31.8641807  40.1936228   3.1213469  31.8613230  40.5280843
   5.4203556  41.3392153  48.5650599   4.5699186  41.4763868  48.7008244
   5.5831683  40.6055932  49.0098301   5.3187419  41.2506255  48.6506198
   4.6588306  38.2891923  42.7604204   3.8280236  38.4565741  42.5539452
   4.6039823  37.9127874  43.5453089   4.5277721  38.2581654  42.8452732
   2.4672089  31.7800816  48.3960614   3.0924793  31.2362949  48.6690047
   2.0122569  31.2995734  47.8268405   2.4920350  31.6290297  48.3522208
   3.0624572  37.4314626  30.6186898   3.6969652  38.0275051  30.5536360
   3.1450183  37.1318083  31.4332768   3.1681123  37.4755534  30.7289985
  16.0407138  39.9630103  43.4873262  16.6324978  40.6027354  43.5191460
  16.4766133  39.2653140  43.7765329  16.1925569  39.9548453  43.5354095
   4.6403555  33.3628601  30.5932340   4.9619396  32.8831684  29.9391603
   4.9030499  34.1728247  30.4023152   4.7269581  33.4118499  30.4687832
   7.8700528  44.3847476  44.1131156   7.3625619  44.9383322  44.5571787
   7.5727174  44.4455765  43.2949931   7.7505413  44.4753787  44.0579613
  10.0362710  32.7500795  42.9555819  10.4617782  32.2973322  42.3439346
   9.4219703  32.1960866  43.2320607  10.0091356  32.6014771  42.9060845
  10.4808308  48.3010733  32.0435100   9.7637618  48.1271595  31.5782337
  11.1315046  48.0663306  31.5110586  10.4710159  48.2406526  31.8964318
   8.4756933  29.2215895  36.3646396   7.8325251  29.0713541  36.9331535
   8.1356340  28.9758240  35.5995501   8.3302010  29.1628017  36.3349411
  13.0656280  37.1775322  35.7876405  12.3947469  37.7205024  35.6589470
  13.7596030  37.6470177  35.5458100  13.0685147  37.3273593  35.7331933
   7.1143013  49.3172034  41.0188163   6.8908668  48.5590863  41.3872190
   6.6252857  49.3470055  40.2968603   7.0086462  49.2094258  40.9664904
  13.2284407  33.6331205  38.6966778  13.5812017  33.2060928  39.3712577
  12.3699208  33.5482049  38.8267855  13.1533852  33.5575946  38.8161789
   1.9268092  36.2638725  36.7549625   1.2080081  36.6802858  37.0222488
   2.2980454  36.8292964  36.2041263   1.8760024  36.4088007  36.7132432
  11.2267673  36.8966574  42.6451620  11.2065600  36.7149869  43.4986399
  11.2746874  37.7678593  42.6211204  11.2302314  36.9983112  42.7674915
   9.1714003  43.4853766  48.5700097   9.1309858  42.8403443  47.9845253
   9.9837321  43.4290383  48.8825509   9.2857156  43.3812733  48.5297046
   5.7621470  49.5372492  38.4725248   5.3481869  48.8746622  38.0829089
   6.4468844  49.6850351  37.9520942   5.8019842  49.4613150  38.3381745
   9.1286764  48.6962577  39.2248864   8.7303048  48.8064847  38.4569685
   8.5137984  48.9044643  39.8075424   8.9785654  48.7436145  39.1980164
   7.7014666  35.3036725  32.0923004   7.1079506  35.6253721  31.5407571
   7.7389944  34.4577820  31.8844110   7.6189055  35.2261053  31.9805775
  14.6608467  28.7549617  39.6251091  14.1539332  28.0478757  39.5572268
  15.4575901  28.4242806  39.7552167  14.7035706  28.6022769  39.6350086
  10.5772483  35.2616229  35.5224754  10.3486176  35.2848931  34.6803113
  10.8370559  34.4373697  35.6419765  10.5818671  35.1432309  35.4149952
   4.8591711  37.1150703  45.1249855   4.3470614  36.5071885  45.4834886
   4.6871208  37.8307295  45.5923830   4.7581348  37.1314002  45.2466078
   3.6317245  33.7992776  36.8178950   4.1074612  34.1609856  36.1829131
   3.1305845  34.4549243  37.0979093   3.6282604  33.9486965  36.7655691
  16.8628607  43.2714544  32.6091955  17.2462213  44.0205900  32.8390052
  16.0672720  43.5180364  32.3503944  16.8022389  43.4184238  32.6049529
   8.7360782  35.0374947  47.5652110   9.2932212  34.8088757  46.9330576
   8.4121847  35.7980613  47.2887322   8.7707192  35.1158784  47.4308607
   6.4543899  38.1242600  48.5304117   7.2055226  38.4394277  48.8443671
   6.6466475  37.9221771  47.7038039   6.5935313  38.1409982  48.4547513
   5.6743899  35.9433976  30.1852334   6.0542863  35.9613605  29.4003449
   4.9336495  36.3887964  30.0643181   5.6212736  36.0115750  30.0515902
  13.3029189  34.2516167  35.7727913  13.3023416  34.0964823  36.6312189
  13.0985369  35.0979154  35.7169298  13.2728967  34.3536788  35.8915852
  11.0270041  38.9313669  39.4264120  11.5223706  38.2136664  39.3868140
  10.2169817  38.6284466  39.3118606  10.9813934  38.7811315  39.4037845
   6.4728653  42.7811482  31.5761124   5.6639975  42.4578155  31.5294433
   6.9803562  42.0744704  31.5089373   6.4278319  42.6292798  31.5591418
  13.0921860  41.6817356  42.1141248  13.5176932  41.1591778  41.5611673
  12.7278780  42.2798194  41.5929871  13.1008463  41.6927583  41.9550258
   2.7275940  49.9781574  40.8738594   3.0422499  50.7917962  40.8816376
   3.1369353  49.5931792  41.5420753   2.8344038  50.0410276  40.9742685
   9.6800459  45.3951620  38.4442406  10.1511638  46.1091883  38.6132391
  10.0160638  44.7950371  38.9802275   9.7995575  45.4123085  38.5474782
  11.7677444  47.0052934  50.6234478  11.8774410  46.2161494  50.9791225
  12.0968341  46.9158870  49.8208816  11.8329850  46.8758787  50.5576869
   6.5969954  30.1679091  45.4000501   6.7297860  29.3710084  45.7281476
   6.9815107  30.6945494  45.9798776   6.6726283  30.1279008  45.5344003
  10.3174406  45.1869555  45.2070098   9.7695352  44.5627438  44.9390164
  10.7787435  45.3763827  44.4914178  10.3041615  45.1228605  45.0620530
   9.6702310  27.0909417  41.9981594   8.8648273  26.9807147  42.3149432
   9.5409045  27.1921873  41.1411460   9.5322442  27.0893087  41.9189634
  13.1268270  33.2554909  42.5921291  12.5431259  33.7564115  42.1798858
  13.4472564  32.7484465  41.9585614  13.0881445  33.2546744  42.4379798
   5.6663069  32.1695504  32.8679966   6.4878764  32.3393817  32.6261660
   5.2032720  32.3242765  32.1446263   5.7194232  32.2177237  32.7251610
   4.2558401  30.1638266  43.6478394   4.8002814  29.8229393  44.2382736
   4.3095337  31.0223728  43.7899679   4.3447521  30.2393525  43.7560268
   9.8832732  46.1920627  41.7379440  10.7031106  46.0483593  41.9995735
   9.6026810  46.8166826  42.2795877   9.9629475  46.2630979  41.8567379
  19.5546067  52.9361130  39.4575246  18.6983963  53.0969628  39.5084363
  19.6013721  52.0653194  39.4780307  19.4345179  52.8311932  39.4681312
  13.9387207  62.4723848  35.2212478  13.1870107  62.0939386  34.9928523
  14.3873219  62.5042281  34.4731288  13.8936874  62.4209455  35.0769980
  22.8639784  59.2047656  49.0635703  23.5706551  58.7099686  49.1922637
  23.0527719  59.6456737  48.3338361  22.9967689  59.1966006  48.9744748
  19.3912167  62.8949217  30.6498025  19.0563535  63.5726139  30.2142247
  19.9039037  62.5054529  30.0614897  19.4177748  62.9373795  30.4984817
  18.9316458  64.8463486  36.5909137  19.3155838  65.4150385  36.0513912
  18.8675599  64.1212996  36.1114953  18.9789885  64.8238949  36.4402999
  22.3997888  54.9953174  42.1006898  22.9453848  55.6738260  42.1600868
  22.3414765  54.8540635  41.2408480  22.4713803  55.0745176  41.9818959
  15.5171963  62.4842240  37.4875250  15.6182326  61.6742594  37.7972378
  14.9213708  62.3899186  36.8574929  15.4444502  62.3507268  37.4401489
  24.1762957  56.4237781  32.9740626  24.0602483  57.1745467  33.4032764
  24.9718844  56.1661734  33.2236713  24.2767546  56.4972628  33.0744717
  15.3572703  67.4019829  38.8890107  16.0010158  67.8432993  39.2786265
  15.6828958  66.5973255  38.8020365  15.5004531  67.3485024  38.9335584
   8.7137008  58.5062526  37.1127584   8.4787192  57.6730179  37.0059853
   8.8522648  58.7867192  36.2988785   8.6992670  58.4246030  36.9769939
  11.0127095  50.6748257  40.0111892  10.3932127  50.0840904  39.8421907
  10.9110959  51.2659692  39.3776215  10.9064770  50.6752340  39.8916881
  16.0593283  60.4131804  34.2609968  16.3809124  60.9537011  33.6571276
  16.7065379  59.8428575  34.3932258  16.2019338  60.4090979  34.1917004
  18.1094991  52.4147799  34.3444355  18.8075155  52.5935926  34.8365818
  18.4247323  51.8918138  33.7214744  18.2590328  52.3641571  34.3246365
  10.7396228  54.2200539  42.2555461  10.6154925  54.8062984  42.8905280
  11.3914512  53.7260735  42.5567736  10.8169877  54.2339343  42.3941390
  18.2982926  58.8018244  34.3324146  18.7376561  58.1935344  34.7778919
  18.1487589  58.4225617  33.5609611  18.3404392  58.6556715  34.2843314
  15.7654569  57.3962256  41.5342972  16.4103572  56.9034699  41.2153920
  16.0056346  57.5387042  42.3609050  15.8965154  57.3439698  41.6092505
  18.3040660  60.2417162  41.1849864  18.5863903  59.4468567  40.9636620
  19.0326821  60.7197749  41.2054925  18.4530224  60.1951759  41.1552880
  16.2821854  47.7840196  38.4265630  15.9525184  48.2351339  37.7569328
  15.6066856  47.7056359  38.9738636  16.1332290  47.8391331  38.4088853
  21.8992263  57.1545425  31.2854916  21.8143558  58.0106392  31.4304484
  22.3876646  56.8789749  31.9537075  21.9581160  57.2402747  31.4056997
  22.8310696  53.7730219  32.7852651  22.3022167  53.9889853  33.4449957
  23.3535716  54.4666358  32.7053620  22.8299149  53.9073356  32.8708250
  14.7210304  57.6693436  31.5860119  14.1367519  58.1743468  31.9925983
  14.3180399  57.4435823  30.8456711  14.5749607  57.7101684  31.5365144
  10.2754332  63.3848197  38.3883790   9.7921910  64.1098687  38.3643374
  11.0877650  63.6824327  38.4993948  10.3245080  63.5350551  38.4011069
  16.3468486  62.1780378  40.9933605  15.8295428  61.8187793  40.3894913
  17.0442877  61.6542552  41.0039671  16.3734067  62.0478066  40.9063863
  20.0032078  62.6275192  46.9549778  20.0915424  62.4401332  47.8027988
  20.4321791  61.9812622  46.5554625  20.0794181  62.5038200  47.0221529
  17.5702538  61.9106352  45.9367440  17.0073373  61.4978962  46.4607101
  18.3323561  61.8359258  46.3560583  17.5996987  61.8383753  46.0760440
  19.1787518  53.9159088  30.0629039  19.4183522  54.1237072  29.2504382
  19.5003359  53.1116597  30.1717984  19.2624676  53.8273189  29.9589592
  14.4877808  45.8452484  33.9088577  15.2423776  46.2130801  33.6705627
  14.3105343  46.2192038  34.6767757  14.5732287  45.9550672  33.9873466
  13.1298529  63.9004373  38.5404070  13.8319109  63.3856362  38.5976827
  13.0496013  64.2278525  39.3450945  13.2222290  63.8718599  38.6676862
  27.7812707  51.9946924  41.9536117  26.9441128  52.0649112  42.1883711
  27.7500938  51.9971419  41.0810419  27.6530989  52.0057152  41.8595665
  14.1777436  54.1379960  47.6684485  14.3497940  54.0285855  48.5169767
  14.7146794  54.7834366  47.4315678  14.2822440  54.2171962  47.7589582
  12.8434873  48.2522803  30.6066690  12.6610446  48.4694684  29.7807683
  13.7060486  48.3661816  30.6625305  12.9439462  48.3012701  30.4921177
  12.4549305  60.0910725  38.0489678  13.2938204  60.3233658  38.0963440
  12.4861074  59.2215037  37.9796714  12.5831022  59.9967672  38.0454323
  13.0802008  60.5111600  42.3502984  13.6200233  60.3682731  43.0206356
  12.3971954  60.9108351  42.7187010  13.0594162  60.5491271  42.5037405
  18.5234592  45.2549214  33.6415714  19.2520753  45.0765169  33.1953870
  18.6129485  46.0967293  33.8522892  18.6441254  45.3533092  33.6069232
  22.5042893  56.1902601  37.5448008  23.2600408  56.6234115  37.5836917
  22.6105217  55.5407371  38.1182644  22.6313063  56.1580085  37.6346034
  25.5423064  60.0175878  38.2950411  25.1058296  60.0212621  39.0509382
  25.2085979  60.6981377  37.8629988  25.4285684  60.1188334  38.3431244
  20.1152137  62.0584211  49.6193561  20.8992554  62.1715059  49.9849303
  19.9148732  61.2325348  49.8152247  20.2018163  61.9530930  49.7027947
   8.4839153  56.7311891  42.5037405   8.2177568  55.9151008  42.6628396
   8.4977717  56.7765047  41.6332921   8.4463875  56.6168796  42.3990887
  12.3896900  51.5296976  29.1189163  11.6755077  51.2435155  29.5311596
  12.8740869  51.8693601  29.7595551  12.3556263  51.5378625  29.2744798
  13.2337759  50.2690269  45.1504413  12.5409556  49.7987249  45.3965144
  13.8498087  50.0428574  45.7246120  13.2222289  50.1657401  45.2713566
  20.2722531  63.9694313  43.2660017  19.4737777  63.7293813  43.5233886
  20.7208542  64.0208706  44.0127065  20.2197142  63.9416704  43.4144941
  19.5644218  60.0326930  29.4950972  19.9795366  59.7011953  28.8035467
  18.7336147  59.7995832  29.3671108  19.5032227  59.9498186  29.3741819
   8.8932567  57.5170671  39.7849149   8.7108140  57.4917557  38.9321442
   9.6282236  57.9869608  39.8238058   8.9746630  57.5832033  39.6647068
  11.9578318  54.2355673  46.2931258  12.6818291  54.2208704  46.7796153
  12.0594455  54.9451029  45.7953226  12.0796527  54.3380377  46.2910045
  19.3323268  57.7154758  51.1580205  18.5396248  58.0298270  51.3432825
  19.4472195  57.9306226  50.3200990  19.2318678  57.7938595  51.0618540
  22.0054587  54.4388749  35.4475221  22.1001441  55.1778043  35.9014846
  21.3813430  54.0106225  35.8809785  21.9263617  54.4850070  35.5783368
  20.2607060  57.6174962  46.0965502  20.8345922  56.9802206  46.2514066
  20.1821864  57.6179044  45.2275159  20.3340295  57.5240073  45.9911913
   8.8603477  54.3964171  39.9348216   9.4376980  54.2600622  40.5740461
   8.1617539  53.9399955  40.1893800   8.8424498  54.3086437  40.0670506
  22.2577608  56.2837489  28.6812173  22.1757770  56.3539676  29.5467160
  22.8957328  56.8467233  28.4895914  22.3397445  56.3776460  28.7802122
  15.6170779  56.0498227  38.1486699  15.3590023  55.2169962  38.1217999
  15.6719262  56.2755840  37.3079200  15.5870557  55.9595998  38.0206836
  20.6971829  48.1526678  38.2490792  19.9928156  47.6635863  38.4074711
  20.7456804  48.1649152  37.3779236  20.6001881  48.0816326  38.1430132
  14.5905491  53.6035989  38.6351594  14.0155083  53.7628158  39.2715555
  14.2141168  52.9671399  38.1720045  14.4508304  53.5333802  38.6606152
  18.2578780  52.0759339  43.4943972  17.8693213  51.6513556  42.8396164
  17.5933478  52.3241488  44.0020999  18.1025708  52.0498060  43.4731840
   4.3362310  53.2476064  36.6496035   4.4222562  52.8707932  37.4309565
   4.9638108  52.8736510  36.1715993   4.4418861  53.1361546  36.6941512
  22.0805141  45.7733967  41.0067957  22.4615653  45.0912139  41.3935831
  21.2768426  45.4843570  40.8243621  22.0181603  45.6301016  41.0372013
  19.3617718  56.3057943  31.6920779  20.1758357  56.5972836  31.5803551
  19.2976859  55.6517806  31.1179072  19.4720457  56.2523138  31.5909617
  25.5827208  58.9883939  46.1050355  25.3465846  58.1572004  45.9862416
  26.2270437  58.9369547  46.6905199  25.6421879  58.8581627  46.1736249
  15.2325626  59.7779461  36.8193092  15.8699573  59.5391208  37.3644885
  15.6580698  59.9816620  36.0846252  15.3901793  59.7730471  36.7910249
   9.9238269  62.0167797  40.7027395   9.9642414  62.2882648  39.8747175
  10.4832793  62.5409705  41.1185183  10.0121615  62.1343552  40.6419283
  15.8728441  54.9981750  31.1567981  16.2573594  54.7789457  31.9084526
  15.6240062  55.8244696  31.2869057  15.8930514  55.0879897  31.2869057
  16.0396982  48.2788166  50.8730565  15.7250423  49.0487728  50.6100128
  15.7186914  47.7158422  50.2882792  15.9455901  48.3098434  50.7471915
  26.6063629  58.7728388  42.1678650  26.3009446  59.5056445  42.5291965
  25.8869845  58.3666318  41.8871436  26.4550971  58.8210121  42.1791787
  17.6147098  60.2551883  38.4986878  17.6886107  60.0927055  39.3528728
  18.4316605  60.4442073  38.2547359  17.7463457  60.2588626  38.5884903
  32.3065421  55.4121389  41.4946994  32.2389921  55.4317348  40.6249580
  32.2921084  56.2551716  41.7202664  32.2944178  55.5395124  41.3999471
  11.3752855  60.6009746  35.5281321  10.5490973  60.8471483  35.4015600
  11.4364846  60.5221827  36.3943379  11.2627022  60.6254695  35.6370266
  13.5928879  46.6678687  36.4876761  12.7251304  46.7401287  36.5534371
  13.8804083  47.4700766  36.6764737  13.5068627  46.7972834  36.5251528
  22.7161768  46.8156547  44.8188083  23.4615360  46.6266357  44.4051509
  22.2999072  47.3414784  44.2601940  22.7646742  46.8658692  44.6752656
  16.1551684  63.2186626  33.2300351  16.4449982  62.8275608  32.5059578
  16.8855165  63.4003331  33.6705626  16.3058568  63.1880440  33.1883158
  16.7446429  58.0204372  44.3153482  16.2458123  58.7320140  44.3938370
  17.5546654  58.3405039  44.2771644  16.7902536  58.1731221  44.3210050
  14.0957600  65.1954009  36.2960501  13.8757895  64.9051364  37.0887168
  13.8752122  64.5368964  35.7678413  14.0305194  65.0553717  36.3349410
  13.0074547  57.2827325  38.5616203  12.7187795  56.6564797  39.0961930
  13.8757895  57.2247613  38.6280883  13.0934799  57.1814870  38.6507157
  23.7952445  52.4262109  38.8798184  23.4517211  51.7052444  39.2305434
  23.8945487  52.2175960  38.0376543  23.7594488  52.2886312  38.8069864
  16.2625555  66.5683399  35.0791193  16.9149613  66.0359841  35.3082219
  15.5651164  66.2152051  35.4659067  16.2556273  66.4372922  35.1703361
  13.2106820  58.9222576  34.4858568  13.9652788  59.3035615  34.6994030
  12.6177433  59.3733720  34.9405264  13.2343534  59.0451404  34.5841446
  24.2565474  58.8887813  34.4222173  24.8223506  59.5481023  34.3380715
  23.6093377  59.2337511  34.8938575  24.2444230  59.0369754  34.4794929
  15.6713487  50.8785417  49.6115780  14.8613263  51.1843196  49.5005622
  16.1488174  51.5990999  49.7268364  15.6216966  51.0300018  49.6122851
  14.5305047  60.0931138  39.8598683  14.0085800  60.2331429  40.5450548
  14.9179067  59.3341802  40.0500800  14.5108748  60.0016662  39.9899759
  11.5196231  50.1436946  33.9293638  11.2321027  49.7738217  33.1925585
  12.2066699  50.6131802  33.6677343  11.5785128  50.1583916  33.7808713
  20.7272052  61.8326597  33.8459252  20.4858728  61.0994458  33.4386317
  20.9073385  62.3813454  33.1925585  20.7179676  61.8048988  33.6889475
  15.9571372  57.1235157  35.2580174  15.7614155  57.7309891  34.6640477
  16.1805718  56.4303101  34.7771848  15.9606013  57.1112682  35.0996255
  14.3549902  54.0089895  35.3761042  15.0772554  54.1731053  34.9164848
  13.8757895  54.7299559  35.2700382  14.3913633  54.1388124  35.2926656
  22.3143410  50.3453693  40.7557727  21.4754511  50.3714972  40.5195991
  22.3847777  50.9924429  41.3363074  22.2011804  50.4449819  40.8066844
  12.0057519  56.4147967  44.4815182  12.5178616  56.6932220  43.8323942
  11.7193862  57.1537261  44.8477995  12.0392382  56.5650321  44.4405060
  20.7612688  47.2439070  35.4885343  21.4639041  47.0446819  35.0105301
  20.4956877  46.4715013  35.7954187  20.8259321  47.1002037  35.4630785
   9.0924425  50.9218159  34.7778919   9.1940562  51.7244320  35.1059894
   9.8880312  50.7205495  34.4801999   9.2252331  51.0104058  34.7814274
  15.5241245  48.5074356  44.5416224  15.3324442  48.5229490  45.3915647
  16.3739841  48.7038030  44.5182879  15.6216967  48.5388707  44.6639519
   9.9088158  51.0365337  42.5200040   9.7673649  50.1849278  42.6444548
  10.1928721  51.0793998  41.6962246   9.9296004  50.9165087  42.4167664
  20.0626750  52.8732427  36.6644529  19.8161464  52.7928178  37.4981318
  20.3911873  52.0885895  36.4707056  20.0747994  52.7458693  36.7592052
  23.9574799  59.5815787  40.4531310  23.8189158  60.2796832  40.9580052
  23.1774797  59.4264443  40.0967492  23.8218026  59.6615953  40.4757584
  22.2952884  55.8812162  46.7053692  22.2900922  55.0091979  46.7096118
  23.0013878  56.0800331  46.2323147  22.3997888  55.7816036  46.6360727
  16.0223777  55.6089146  46.0767512  16.1667153  56.1890354  45.4410622
  16.3699426  55.9865443  46.7817366  16.0951239  55.7509850  46.0866507
  18.1943695  54.8079314  43.8592643  17.4467009  55.0010329  43.4540921
  18.3485220  53.9824534  43.6216765  18.1066122  54.7144426  43.7638049
  15.0951532  63.7991918  42.9428538  15.2441096  63.2394834  42.2901943
  15.8751534  63.8783919  43.3261057  15.2325626  63.7277483  42.9025488
  25.4528172  58.9394040  31.2147809  25.0734980  58.1531178  31.2077098
  24.7894417  59.4880897  31.0719453  25.2986646  58.9038864  31.1928606
  17.6204833  63.9706561  44.2213029  17.5448504  63.3015371  44.7763818
  17.5494692  64.6724349  44.7353696  17.5985440  63.9751468  44.3789877
  18.4345472  48.7029865  44.7488047  18.8918086  49.4353839  44.8760839
  18.5101800  48.2796330  45.5075303  18.5136441  48.7487103  44.8789123
  10.6778463  48.9495685  45.8377491  10.1420652  48.3376043  46.1538258
  10.7396228  49.5243821  46.4911157  10.6074096  48.9442612  45.9812917
  18.2775080  62.4907559  35.0536635  19.0424971  62.2217203  34.7319300
  18.1753170  62.0057570  35.7706698  18.3756575  62.3797124  35.1116463
  16.3127850  50.6931969  41.5929871  15.5223924  50.5123429  41.9147207
  16.7088472  49.9158922  41.5760165  16.2544726  50.5519430  41.6382419
  20.7993740  59.5219743  27.0336585  21.5666725  59.5819868  26.6242436
  20.3525049  58.9500185  26.5492903  20.8467168  59.4456319  26.9014295
  21.6971536  58.3274399  39.3189317  21.0216538  58.0959631  39.8202704
  21.7063912  57.7195582  38.6931422  21.5990040  58.2033324  39.3005469
  18.8265680  53.1692228  46.0753370  18.7624821  54.0302185  45.9473507
  18.9662868  52.8524221  45.2748921  18.8381150  53.2492395  45.9381583
  23.6988270  61.1839531  31.5499495  23.7808108  61.9906518  31.2260946
  24.1838013  61.2035491  32.2740268  23.7825428  61.3060194  31.6086394
  17.5084774  55.8624367  40.2169573  17.0847023  56.0628866  39.4808591
  17.3329629  55.0153215  40.3293873  17.4195654  55.7673149  40.1243263
  17.0096467  67.3774880  42.6791030  17.4992397  66.6785670  42.4966695
  16.4380699  67.0798750  43.2667087  16.9980997  67.2301104  42.7392071
  12.7967219  56.3576419  35.6497545  12.9531838  56.2923222  36.5053537
  13.1367812  57.1324971  35.4376225  12.8700454  56.4625617  35.7452140
  19.3346363  55.7334302  34.5190909  19.8761909  55.2304684  34.9829529
  19.6492922  55.6799497  33.7080394  19.4610760  55.6513723  34.4674721
  23.2063471  59.9436950  51.6317821  24.0198336  59.6722099  51.7922953
  23.0458437  59.6444490  50.8278017  23.3033419  59.8591876  51.5363227
  17.5032813  61.1251654  31.8030937  17.5725633  60.2666192  31.9423937
  18.2821268  61.3423535  31.4749961  17.6285663  61.0304518  31.7748094
  20.4835633  50.6270607  44.5713209  20.6977602  49.9881521  44.0176563
  19.8669532  51.0716431  44.1421071  20.4240962  50.5980751  44.4263640
  21.8940301  63.5489355  36.0167430  21.5020092  63.2456070  35.2990296
  22.0493373  64.3858445  35.8272384  21.8593890  63.6273192  35.8823927
   9.3701480  53.5411369  35.9658313   9.7500445  53.9595914  35.3018580
   8.7956845  54.1224825  36.2727156   9.3412805  53.6889228  35.9135053
  22.6474721  52.2359672  45.5096516  21.8351402  51.9285562  45.5909689
  23.1064655  51.7558672  46.0739228  22.5955105  52.1196164  45.6051110
  22.0579975  60.1139344  35.9573460  21.6994630  60.2853987  36.7337493
  21.5718686  60.5752550  35.4001459  21.9338672  60.2078315  35.9898730
  19.8750361  43.7370543  39.5600552  19.0043919  43.7109264  39.5133861
  20.1290703  43.5647735  38.7426398  19.7843921  43.7080686  39.4320689
  16.8468341  55.7938509  28.4973695  17.1360866  56.5703392  28.7717269
  16.9340140  55.2827241  29.1988194  16.9022597  55.8330428  28.6416193
  19.7428228  53.6419744  50.2925218  20.2127859  54.2661860  50.6793093
  19.7890108  52.9736719  50.8518433  19.8196104  53.6354424  50.4325290
  16.8999502  45.7476771  41.0174022  16.3837990  45.0556962  41.1425601
  16.3393431  46.4147548  40.9636621  16.7406015  45.7440029  41.0280088
  18.9691735  46.2869731  42.8466875  18.5823488  46.3118763  43.6280405
  18.4824673  45.7211410  42.3941391  18.8404244  46.2065482  42.8954778
  23.2184715  61.0043240  46.9040661  23.8564435  60.5103436  46.5703117
  22.5758806  60.9320641  46.3192888  23.2178941  60.9202249  46.7683016
  24.9441715  52.8532386  41.4706577  24.5169323  52.7658735  40.7154677
  24.3067768  52.9610162  42.0561421  24.7871322  52.8565046  41.4452019
  18.6348877  43.1736717  45.1377135  19.2641995  43.7097017  44.8598205
  18.8034740  43.0814075  45.9890700  18.7526672  43.2398079  45.2225663
  18.4362792  47.9607911  47.4103546  19.2636221  47.6893060  47.4662161
  18.4570638  48.7568753  47.7667364  18.5615642  48.0387666  47.4718729
  23.2738971  61.6963048  43.5446018  24.0631349  61.3452113  43.6648100
  23.4482569  62.5099437  43.2822652  23.4159253  61.7648905  43.5233886
  13.0132282  55.1071774  40.5973807  12.1720288  55.0075648  40.8052701
  13.2222290  55.8767254  40.9488128  12.9196974  55.2063817  40.6801122
  10.4907849  52.7291311  38.4258558  10.0964546  52.8034323  37.6508667
   9.9347966  53.1149257  38.9766919  10.3510661  52.7973086  38.3926217
  16.8248947  53.0353173  39.8471404  16.5212084  52.4809162  40.4481812
  16.1228367  53.2145383  39.3599439  16.6765156  52.9797956  39.8641110
  15.8815044  50.3453693  34.4116106  16.1574778  49.6272606  33.9993674
  16.4813713  50.9438613  34.2037212  16.0108308  50.3274064  34.3196868
  14.8867298  60.2502894  44.5543502  14.7787653  60.2604956  45.4205560
  15.0963079  61.0757674  44.3648456  14.9017409  60.3743969  44.6547594
  19.3825564  48.0167210  32.6862701  19.8369311  48.1877771  33.4110546
  19.8565610  47.4035321  32.2860477  19.5193884  47.9518096  32.7336463
  12.9041090  57.5015536  42.0165440  12.3129023  58.1425035  41.9868455
  13.6662113  57.9253154  41.9896739  12.9289350  57.6591375  42.0080587
  13.3001712  48.6617534  42.6833457  13.7603194  48.7356464  43.4208581
  13.3457819  49.4598788  42.3333279  13.3752268  48.7911681  42.7406214
  14.9485062  49.3284229  47.2505485  14.5570627  48.6817576  47.6861262
  15.1170925  49.9195664  47.8699740  14.9155972  49.3198497  47.4068191
  29.0231511  57.3321306  43.0142718  29.0814635  57.7807955  43.7602695
  28.3897979  57.7420119  42.5772798  28.9382806  57.4595041  43.0595266
  22.6630606  62.9524848  39.4497464  22.4650294  63.4415662  38.7553676
  22.0418317  63.1566089  40.0281598  22.5418170  63.0541386  39.4320688
  16.7238584  54.7209745  33.7907709  17.4680629  55.1084021  34.0290658
  16.8699280  53.8767170  33.9548196  16.8549169  54.6540218  33.8501678
  18.6418160  46.5160004  38.8239570  17.7954205  46.6882811  38.6980920
  18.6389292  45.7109347  39.1605398  18.5165310  46.4221033  38.8550697
  19.7116460  50.2935218  39.6901628  19.2376414  49.7676980  40.2006939
  20.0834596  49.7464691  39.1216489  19.6966349  50.1351215  39.6816775
  10.0889490  52.2906725  45.0585174  10.9515103  52.1902434  44.9722503
   9.7581273  51.7101434  44.4970746  10.1674687  52.1898352  44.9630580
  25.9753191  55.3537594  41.1008408  25.7351413  54.5144009  41.1050835
  26.4545198  55.4337760  41.8249182  26.0105374  55.2418993  41.2083211
  21.6399960  51.1871773  32.7527382  21.1122978  51.2700517  32.0633091
  22.0995668  51.9289644  32.7492026  21.6301810  51.3092435  32.6502077
  27.9758378  52.1339051  39.0537668  27.7368148  52.0934885  38.2158452
  28.1392279  52.9810203  39.1803389  27.9648681  52.2531136  38.9491149
  24.5804408  56.5189000  44.9842713  25.3038607  56.0661527  44.8053733
  24.3154370  56.7993666  44.2015041  24.6485681  56.4939969  44.8421428
  13.4491276  51.1149174  41.7195592  12.8244346  51.1267566  41.1121545
  13.1136871  51.5909349  42.3686832  13.3076768  51.1867691  41.7252160
  13.6333025  49.4574292  27.7768277  13.2845829  50.1094018  28.2399826
  13.1529471  49.4431405  27.0492148  13.5103269  49.5517346  27.7379368
  10.1616952  59.1749634  43.1599356   9.6316876  58.4842073  43.2094331
  10.4342045  59.1659819  42.3312065  10.1241674  59.0716766  43.0446772
  21.1937042  59.7575336  31.8837039  21.9171241  60.2233449  31.7401612
  20.7537633  59.8248946  31.1334636  21.2352734  59.8359173  31.7521820
  20.3623197  56.6172878  43.1337728  19.7480190  56.0730929  43.4286363
  20.8790482  56.1037115  42.6543544  20.3478860  56.4609288  43.1061956
  19.6019494  57.6877149  40.8682026  19.1747102  57.0626867  40.4347462
  19.5944439  57.4052070  41.6941034  19.5378636  57.5529929  40.9261854
  12.7182022  52.7242322  43.9370460  12.8775508  51.9685646  44.3422182
  12.5374915  53.2733261  44.5911198  12.7147381  52.6936135  44.0933166
  20.6602325  44.8903557  44.4921250  20.1642886  45.0867231  43.8012817
  21.4171387  45.2896225  44.3210051  20.6989149  44.9781291  44.3641387
  17.9305204  48.5645903  41.0824560  17.9547691  48.0306015  40.3937340
  18.1816678  48.0563212  41.7450151  17.9715123  48.4106807  41.0789205
   5.4412794  55.8477398  40.5167704   5.3356243  55.8024242  39.6519788
   4.6913014  56.1931179  40.7981989   5.3148397  55.8918306  40.4305034
  14.2106526  47.2916721  40.4630305  14.2504898  47.7925928  41.1765012
  13.3856191  47.3827115  40.1936228  14.0946052  47.3798538  40.5280843
  16.3936139  56.8577461  48.5650599  15.5431770  56.9949176  48.7008244
  16.5564267  56.1241240  49.0098301  16.2920003  56.7691563  48.6506198
  15.6320890  53.8077231  42.7604204  14.8012819  53.9751049  42.5539452
  15.5772407  53.4313182  43.5453089  15.5010305  53.7766962  42.8452732
  13.4404673  47.2986124  48.3960614  14.0657376  46.7548257  48.6690047
  12.9855153  46.8181042  47.8268405  13.4652934  47.1475605  48.3522208
  14.0056934  52.0832823  33.2894321  14.1459895  52.5805287  33.9922963
  14.5039466  51.3819117  33.4308535  14.0998014  52.0534801  33.4145900
  14.0357156  52.9499934  30.6186898  14.6702235  53.5460359  30.5536360
  14.1182767  52.6503391  31.4332768  14.1413707  52.9940842  30.7289985
  27.0139722  55.4815411  43.4873262  27.6057562  56.1212662  43.5191460
  27.4498716  54.7838448  43.7765329  27.1658153  55.4733761  43.5354095
  15.6136139  48.8813909  30.5932340  15.9351980  48.4016992  29.9391603
  15.8763083  49.6913555  30.4023152  15.7002164  48.9303807  30.4687832
  18.8433112  59.9032783  44.1131156  18.3358203  60.4568630  44.5571787
  18.5459758  59.9641073  43.2949931  18.7237997  59.9939095  44.0579613
  21.0095294  48.2686103  42.9555819  21.4350365  47.8158629  42.3439346
  20.3952287  47.7146174  43.2320607  20.9823939  48.1200079  42.9060845
  10.5410144  55.1467774  33.8876444  11.0502373  55.7432282  34.2687750
  11.0144416  54.8793748  33.2052864  10.6853520  55.1953590  33.8430967
  21.4540892  63.8196041  32.0435100  20.7370202  63.6456903  31.5782337
  22.1047629  63.5848613  31.5110586  21.4442742  63.7591834  31.8964318
  19.4489517  44.7401203  36.3646396  18.8057835  44.5898849  36.9331535
  19.1088924  44.4943548  35.5995501  19.3034594  44.6813325  36.3349411
  24.0388863  52.6960630  35.7876405  23.3680053  53.2390332  35.6589470
  24.7328613  53.1655485  35.5458100  24.0417731  52.8458901  35.7331933
  18.0875597  64.8357342  41.0188163  17.8641251  64.0776171  41.3872190
  17.5985440  64.8655363  40.2968603  17.9819046  64.7279566  40.9664904
  24.2016991  49.1516513  38.6966778  24.5544601  48.7246236  39.3712577
  23.3431792  49.0667357  38.8267855  24.1266435  49.0761254  38.8161789
  12.9000676  51.7824033  36.7549625  12.1812665  52.1988166  37.0222488
  13.2713038  52.3478272  36.2041263  12.8492607  51.9273314  36.7132432
  22.2000256  52.4151882  42.6451620  22.1798184  52.2335177  43.4986399
  22.2479457  53.2863900  42.6211204  22.2034897  52.5168420  42.7674915
  20.1446586  59.0039074  48.5700097  20.1042441  58.3588751  47.9845253
  20.9569904  58.9475691  48.8825509  20.2589740  58.8998041  48.5297046
  16.7354054  65.0557800  38.4725248  16.3214452  64.3931930  38.0829089
  17.4201428  65.2035659  37.9520942  16.7752425  64.9798458  38.3381745
  20.1019348  64.2147885  39.2248864  19.7035631  64.3250155  38.4569685
  19.4870567  64.4229951  39.8075424  19.9518237  64.2621453  39.1980164
  18.6747250  50.8222033  32.0923004  18.0812089  51.1439029  31.5407571
  18.7122528  49.9763128  31.8844110  18.5921639  50.7446361  31.9805775
  21.5505067  50.7801537  35.5224754  21.3218760  50.8034239  34.6803113
  21.8103143  49.9559004  35.6419765  21.5551255  50.6617617  35.4149952
  15.8324295  52.6336010  45.1249855  15.3203198  52.0257193  45.4834886
  15.6603791  53.3492603  45.5923830  15.7313932  52.6499310  45.2466078
  10.6790010  51.0773586  47.7752216  10.5092600  51.7374961  47.2300423
  10.2355960  51.2880147  48.4964705  10.5889343  51.2059568  47.8013846
  14.6049829  49.3178084  36.8178950  15.0807195  49.6795164  36.1829131
  14.1038429  49.9734551  37.0979093  14.6015188  49.4672272  36.7655691
  19.7093365  50.5560255  47.5652110  20.2664795  50.3274065  46.9330576
  19.3854430  51.3165921  47.2887322  19.7439775  50.6344092  47.4308607
   7.5792074  53.9820451  43.0340706   7.0318794  53.3121097  43.1521574
   8.3684452  53.6150299  43.0984173   7.6144258  53.8285438  43.0609407
  17.4276483  53.6427908  48.5304117  18.1787810  53.9579585  48.8443671
  17.6199059  53.4407079  47.7038039  17.5667897  53.6595290  48.4547513
  16.6476482  51.4619284  30.1852334  17.0275447  51.4798913  29.4003449
  15.9069078  51.9073272  30.0643181  16.5945320  51.5301058  30.0515902
   6.3379044  53.1941259  40.1886729   6.1600805  52.7417868  40.9141645
   6.0498066  53.9967421  40.3725207   6.2691997  53.2463817  40.3230232
  22.0002625  54.4498977  39.4264120  22.4956290  53.7321972  39.3868140
  21.1902400  54.1469774  39.3118606  21.9546518  54.2996623  39.4037845
  17.4461236  58.2996790  31.5761124  16.6372559  57.9763463  31.5294433
  17.9536145  57.5930012  31.5089373  17.4010903  58.1478106  31.5591418
   8.0751514  55.7268983  37.3008488   7.2097033  55.7154673  37.1891259
   8.1750329  55.5399206  38.1479628   7.9625680  55.6975044  37.4097433
  24.0654444  57.2002664  42.1141248  24.4909515  56.6777086  41.5611673
  23.7011363  57.7983501  41.5929871  24.0741046  57.2112891  41.9550258
  13.7008523  65.4966882  40.8738594  14.0155082  66.3103270  40.8816376
  14.1101937  65.1117100  41.5420753  13.8076621  65.5595584  40.9742685
  20.6533043  60.9136928  38.4442406  21.1244221  61.6277191  38.6132391
  20.9893222  60.3135678  38.9802275  20.7728158  60.9308393  38.5474782
  22.7410028  62.5238242  50.6234478  22.8506993  61.7346802  50.9791225
  23.0700924  62.4344178  49.8208816  22.8062433  62.3944095  50.5576869
  17.5702538  45.6864399  45.4000501  17.7030444  44.8895392  45.7281476
  17.9547691  46.2130802  45.9798776  17.6458867  45.6464316  45.5344003
  21.2906989  60.7054862  45.2070098  20.7427935  60.0812746  44.9390164
  21.7520018  60.8949134  44.4914178  21.2774199  60.6413913  45.0620530
  20.6434893  42.6094725  41.9981594  19.8380857  42.4992455  42.3149432
  20.5141629  42.7107181  41.1411460  20.5055026  42.6078395  41.9189634
  24.1000854  48.7740217  42.5921291  23.5163843  49.2749423  42.1798858
  24.4205148  48.2669773  41.9585614  24.0614029  48.7732052  42.4379798
  16.6395653  47.6880812  32.8679966  17.4611347  47.8579125  32.6261660
  16.1765304  47.8428073  32.1446263  16.6926815  47.7362545  32.7251610
  15.2290985  45.6823574  43.6478394  15.7735398  45.3414701  44.2382736
  15.2827921  46.5409035  43.7899679  15.3180104  45.7578833  43.7560268
  11.0421544  59.4439990  40.5217202  11.6466401  59.4035824  39.8931023
  10.8348856  60.2911142  40.5521258  11.1010441  59.5627992  40.4333319
  20.8565316  61.7105935  41.7379440  21.6763689  61.5668901  41.9995735
  20.5759393  62.3352134  42.2795877  20.9362059  61.7816287  41.8567379
   6.2772826  58.4274608  40.3916125   6.1797104  57.6170879  40.7006182
   7.0601696  58.4066401  40.0062393   6.3788962  58.3041698  40.3802988
  37.3278966  69.3670787  34.7022316  37.2972970  70.2215424  34.8740585
  37.9260315  69.0666079  35.2608460  37.4116124  69.4487283  34.8097118
  30.5278651  68.4546438  39.4575246  29.6716546  68.6154936  39.5084363
  30.5746305  67.5838502  39.4780307  30.4077762  68.3497240  39.4681312
  33.8372367  74.7232963  49.0635703  34.5439135  74.2284994  49.1922637
  34.0260303  75.1642045  48.3338361  33.9700273  74.7151314  48.9744748
  33.3730472  70.5138482  42.1006898  33.9186432  71.1923568  42.1600868
  33.3147348  70.3725943  41.2408480  33.4446386  70.5930483  41.9818959
  35.1495541  71.9423089  32.9740626  35.0335066  72.6930775  33.4032764
  35.9451427  71.6847042  33.2236713  35.2500130  72.0157936  33.0744717
  21.9859679  66.1933565  40.0111892  21.3664710  65.6026212  39.8421907
  21.8843542  66.7845000  39.3776215  21.8797354  66.1937648  39.8916881
  27.0325866  75.9317112  34.2609968  27.3541707  76.4722319  33.6571276
  27.6797963  75.3613883  34.3932258  27.1751921  75.9276287  34.1917004
  29.0827574  67.9333107  34.3444355  29.7807739  68.1121234  34.8365818
  29.3979907  67.4103446  33.7214744  29.2322911  67.8826879  34.3246365
  21.7128812  69.7385847  42.2555461  21.5887508  70.3248292  42.8905280
  22.3647096  69.2446042  42.5567736  21.7902461  69.7524651  42.3941390
  29.2715510  74.3203552  34.3324146  29.7109145  73.7120652  34.7778919
  29.1220172  73.9410925  33.5609611  29.3136975  74.1742023  34.2843314
  26.7387153  72.9147564  41.5342972  27.3836155  72.4220007  41.2153920
  26.9788930  73.0572350  42.3609050  26.8697738  72.8625006  41.6092505
  29.2773244  75.7602470  41.1849864  29.5596487  74.9653875  40.9636620
  30.0059404  76.2383057  41.2054925  29.4262808  75.7137066  41.1552880
  27.2554438  63.3025503  38.4265630  26.9257768  63.7536647  37.7569328
  26.5799440  63.2241667  38.9738636  27.1064874  63.3576639  38.4088853
  32.8724846  72.6730733  31.2854916  32.7876141  73.5291700  31.4304484
  33.3609229  72.3975057  31.9537075  32.9313743  72.7588055  31.4056997
  33.8043279  69.2915527  32.7852651  33.2754751  69.5075161  33.4449957
  34.3268299  69.9851666  32.7053620  33.8031732  69.4258664  32.8708250
  39.2591332  74.8661832  38.1585695  38.4289035  75.0772475  38.3219112
  39.2100585  74.0398886  37.8827979  39.1298068  74.7751438  38.1423061
  25.6942887  73.1878744  31.5860119  25.1100102  73.6928775  31.9925983
  25.2912982  72.9621131  30.8456711  25.5482191  73.2286992  31.5365144
  30.9764662  78.1460500  46.9549778  31.0648008  77.9586640  47.8027988
  31.4054374  77.4997930  46.5554625  31.0526764  78.0223508  47.0221529
  30.1520102  69.4344396  30.0629039  30.3916105  69.6422380  29.2504382
  30.4735943  68.6301905  30.1717984  30.2357259  69.3458497  29.9589592
  25.4610392  61.3637792  33.9088577  26.2156360  61.7316109  33.6705627
  25.2837926  61.7377346  34.6767757  25.5464870  61.4735980  33.9873466
  38.7545291  67.5132232  41.9536117  37.9173712  67.5834419  42.1883711
  38.7233521  67.5156727  41.0810419  38.6263573  67.5242459  41.8595665
  25.1510020  69.6565268  47.6684485  25.3230523  69.5471163  48.5169767
  25.6879377  70.3019673  47.4315678  25.2555024  69.7357270  47.7589582
  23.8167456  63.7708111  30.6066690  23.6343030  63.9879992  29.7807683
  24.6793069  63.8847124  30.6625305  23.9172046  63.8198009  30.4921177
  33.4775476  71.7087909  37.5448008  34.2332991  72.1419423  37.5836917
  33.5837801  71.0592679  38.1182644  33.6045647  71.6765393  37.6346034
  36.5155647  75.5361186  38.2950411  36.0790879  75.5397929  39.0509382
  36.1818563  76.2166685  37.8629988  36.4018267  75.6373642  38.3431244
  31.0884721  77.5769519  49.6193561  31.8725138  77.6900367  49.9849303
  30.8881316  76.7510656  49.8152247  31.1750746  77.4716238  49.7027947
  19.4571737  72.2497199  42.5037405  19.1910152  71.4336316  42.6628396
  19.4710301  72.2950355  41.6332921  19.4196459  72.1354104  42.3990887
  36.4353130  62.5775014  40.5379839  37.0779039  62.6473119  41.1241754
  36.6876151  61.9104237  40.0359381  36.5675262  62.4901363  40.5507118
  23.3629483  67.0482284  29.1189163  22.6487661  66.7620463  29.5311596
  23.8473452  67.3878909  29.7595551  23.3288847  67.0563933  29.2744798
  24.2070343  65.7875577  45.1504413  23.5142140  65.3172557  45.3965144
  24.8230670  65.5613882  45.7246120  24.1954873  65.6842709  45.2713566
  39.6499994  72.2542106  37.1870048  40.3116428  71.6932775  37.0865957
  39.0091406  71.7594137  37.5122739  39.6528861  72.0978515  37.2202388
  30.5376801  75.5512237  29.4950972  30.9527950  75.2197261  28.8035467
  29.7068731  75.3181140  29.3671108  30.4764810  75.4683493  29.3741819
  19.8665150  73.0355979  39.7849149  19.6840723  73.0102865  38.9321442
  20.6014819  73.5054916  39.8238058  19.9479214  73.1017341  39.6647068
  35.9364824  73.2707488  36.9282037  36.1720414  73.4152687  36.1008888
  36.0854388  74.0349897  37.3213551  35.9930628  73.4046543  36.8645641
  22.9310902  69.7540981  46.2931258  23.6550874  69.7394012  46.7796153
  23.0327038  70.4636337  45.7953226  23.0529111  69.8565685  46.2910045
  37.7655281  72.1109154  34.7651641  38.0963498  72.6436795  34.1591736
  38.3388369  72.1648042  35.4213592  37.8988960  72.1978723  34.7729423
  30.3055851  73.2340066  51.1580205  29.5128832  73.5483578  51.3432825
  30.4204778  73.4491534  50.3200990  30.2051262  73.3123903  51.0618540
  32.9787170  69.9574057  35.4475221  33.0734025  70.6963351  35.9014846
  32.3546014  69.5291533  35.8809785  32.8996200  70.0035378  35.5783368
  31.2339644  73.1360270  46.0965502  31.8078506  72.4987514  46.2514066
  31.1554448  73.1364352  45.2275159  31.3072879  73.0425381  45.9911913
  19.8336061  69.9149479  39.9348216  20.4109563  69.7785930  40.5740461
  19.1350122  69.4585263  40.1893800  19.8157082  69.8271745  40.0670506
  33.2310192  71.8022797  28.6812173  33.1490354  71.8724984  29.5467160
  33.8689912  72.3652541  28.4895914  33.3130029  71.8961768  28.7802122
  26.5903363  71.5683535  38.1486699  26.3322607  70.7355270  38.1217999
  26.6451846  71.7941148  37.3079200  26.5603141  71.4781306  38.0206836
  31.6704413  63.6711986  38.2490792  30.9660740  63.1821171  38.4074711
  31.7189387  63.6834460  37.3779236  31.5734464  63.6001634  38.1430132
  25.5638075  69.1221297  38.6351594  24.9887666  69.2813466  39.2715555
  25.1873751  68.4856706  38.1720045  25.4240887  69.0519110  38.6606152
  29.2311363  67.5944647  43.4943972  28.8425796  67.1698864  42.8396164
  28.5666062  67.8426796  44.0020999  29.0758291  67.5683368  43.4731840
  38.8734633  67.3519651  36.2691802  38.6171197  66.5399593  36.0789685
  39.7163947  67.3597218  36.0421990  38.9600658  67.2331649  36.2076620
  15.3094894  68.7661372  36.6496035  15.3955146  68.3893240  37.4309565
  15.9370691  68.3921818  36.1715993  15.4151445  68.6546854  36.6941512
  33.0537725  61.2919275  41.0067957  33.4348237  60.6097446  41.3935831
  32.2501009  61.0028877  40.8243621  32.9914187  61.1486324  41.0372013
  30.3350302  71.8243251  31.6920779  31.1490941  72.1158144  31.5803551
  30.2709443  71.1703114  31.1179072  30.4453041  71.7708446  31.5909617
  36.5559792  74.5069247  46.1050355  36.3198429  73.6757312  45.9862416
  37.2003021  74.4554855  46.6905199  36.6154463  74.3766935  46.1736249
  26.2058210  75.2964769  36.8193092  26.8432157  75.0576516  37.3644885
  26.6313282  75.5001928  36.0846252  26.3634376  75.2915779  36.7910249
  26.8461025  70.5167058  31.1567981  27.2306178  70.2974765  31.9084526
  26.5972645  71.3430004  31.2869057  26.8663098  70.6065205  31.2869057
  27.0129565  63.7973474  50.8730565  26.6983007  64.5673036  50.6100128
  26.6919498  63.2343730  50.2882792  26.9188485  63.8283742  50.7471915
  37.5796213  74.2913696  42.1678650  37.2742030  75.0241753  42.5291965
  36.8602428  73.8851626  41.8871436  37.4283555  74.3395429  42.1791787
  28.5879682  75.7737191  38.4986878  28.6618690  75.6112363  39.3528728
  29.4049188  75.9627381  38.2547359  28.7196041  75.7773934  38.5884903
  43.2798005  70.9306697  41.4946994  43.2122505  70.9502656  40.6249580
  43.2653667  71.7737024  41.7202664  43.2676761  71.0580431  41.3999471
  24.5661462  62.1863995  36.4876761  23.6983888  62.2586595  36.5534371
  24.8536667  62.9886074  36.6764737  24.4801210  62.3158142  36.5251528
  33.6894351  62.3341854  44.8188083  34.4347943  62.1451665  44.4051509
  33.2731656  62.8600092  44.2601940  33.7379325  62.3844000  44.6752656
  41.0656622  69.7051083  39.7693588  41.6164544  69.0719152  40.0090680
  41.0500737  70.2366476  40.4609092  41.1441818  69.6900031  39.9072446
  27.7179013  73.5389680  44.3153482  27.2190707  74.2505448  44.3938370
  28.5279237  73.8590347  44.2771644  27.7635120  73.6916529  44.3210050
  34.7685028  67.9447417  38.8798184  34.4249794  67.2237752  39.2305434
  34.8678071  67.7361268  38.0376543  34.7327071  67.8071620  38.8069864
  24.1839404  74.4407884  34.4858568  24.9385372  74.8220923  34.6994030
  23.5910016  74.8919028  34.9405264  24.2076117  74.5636712  34.5841446
  35.2298057  74.4073121  34.4222173  35.7956090  75.0666331  34.3380715
  34.5825961  74.7522819  34.8938575  35.2176814  74.5555062  34.4794929
  26.6446071  66.3970725  49.6115780  25.8345847  66.7028504  49.5005622
  27.1220758  67.1176307  49.7268364  26.5949550  66.5485326  49.6122851
  25.5037630  75.6116446  39.8598683  24.9818384  75.7516737  40.5450548
  25.8911651  74.8527110  40.0500800  25.4841331  75.5201969  39.9899759
  22.4928814  65.6622254  33.9293638  22.2053610  65.2923525  33.1925585
  23.1799283  66.1317110  33.6677343  22.5517712  65.6769224  33.7808713
  31.7004635  77.3511905  33.8459252  31.4591311  76.6179766  33.4386317
  31.8805968  77.8998762  33.1925585  31.6912259  77.3234296  33.6889475
  26.9303956  72.6420465  35.2580174  26.7346739  73.2495199  34.6640477
  27.1538302  71.9488409  34.7771848  26.9338597  72.6297990  35.0996255
  25.3282486  69.5275203  35.3761042  26.0505138  69.6916361  34.9164848
  24.8490479  70.2484867  35.2700382  25.3646217  69.6573432  35.2926656
  33.2875994  65.8639001  40.7557727  32.4487094  65.8900280  40.5195991
  33.3580361  66.5109737  41.3363074  33.1744387  65.9635127  40.8066844
  22.9790103  71.9333275  44.4815182  23.4911200  72.2117528  43.8323942
  22.6926445  72.6722569  44.8477995  23.0124966  72.0835629  44.4405060
  37.1633517  71.0706988  38.0418969  37.0767492  71.2262414  38.8953748
  36.7083997  71.7145064  37.6678374  37.0836774  71.1882743  38.1126076
  20.0657009  66.4403467  34.7778919  20.1673146  67.2429628  35.1059894
  20.8612896  66.2390803  34.4801999  20.1984915  66.5289366  34.7814274
  26.4973828  64.0259664  44.5416224  26.3057025  64.0414798  45.3915647
  27.3472424  64.2223338  44.5182879  26.5949550  64.0574015  44.6639519
  20.8820741  66.5550645  42.5200040  20.7406233  65.7034586  42.6444548
  21.1661305  66.5979306  41.6962246  20.9028587  66.4350395  42.4167664
  31.0359334  68.3917735  36.6644529  30.7894048  68.3113486  37.4981318
  31.3644457  67.6071203  36.4707056  31.0480577  68.2644001  36.7592052
  34.9307382  75.1001095  40.4531310  34.7921742  75.7982140  40.9580052
  34.1507380  74.9449751  40.0967492  34.7950609  75.1801261  40.4757584
  33.2685468  71.3997470  46.7053692  33.2633506  70.5277286  46.7096118
  33.9746461  71.5985639  46.2323147  33.3730471  71.3001344  46.6360727
  26.9956361  71.1274454  46.0767512  27.1399737  71.7075662  45.4410622
  27.3432009  71.5050751  46.7817366  27.0683822  71.2695158  46.0866507
  29.1676278  70.3264622  43.8592643  28.4199592  70.5195637  43.4540921
  29.3217803  69.5009842  43.6216765  29.0798706  70.2329734  43.7638049
  36.4260755  74.4579348  31.2147809  36.0467564  73.6716486  31.2077098
  35.7627001  75.0066205  31.0719453  36.2719230  74.4224172  31.1928606
  29.4078055  64.2215173  44.7488047  29.8650669  64.9539147  44.8760839
  29.4834384  63.7981638  45.5075303  29.4869025  64.2672411  44.8789123
  21.6511046  64.4680993  45.8377491  21.1153236  63.8561351  46.1538258
  21.7128811  65.0429129  46.4911157  21.5806679  64.4627920  45.9812917
  33.8805381  57.4005048  38.6181890  33.9988949  57.8581511  37.8849193
  33.7067557  56.5950309  38.3318108  33.8724552  57.3498820  38.4682824
  27.2860433  66.2117277  41.5929871  26.4956508  66.0308737  41.9147207
  27.6821056  65.4344229  41.5760165  27.2277309  66.0704738  41.6382419
  31.7726324  75.0405051  27.0336585  32.5399309  75.1005176  26.6242436
  31.3257633  74.4685493  26.5492903  31.8199751  74.9641627  26.9014295
  32.6704119  73.8459707  39.3189317  31.9949121  73.6144939  39.8202704
  32.6796496  73.2380890  38.6931422  32.5722624  73.7218632  39.3005469
  29.7998263  68.6877536  46.0753370  29.7357405  69.5487492  45.9473507
  29.9395451  68.3709529  45.2748921  29.8113733  68.7677703  45.9381583
  34.6720854  76.7024839  31.5499495  34.7540691  77.5091826  31.2260946
  35.1570596  76.7220799  32.2740268  34.7558012  76.8245502  31.6086394
  28.4817357  71.3809675  40.2169573  28.0579606  71.5814174  39.4808591
  28.3062212  70.5338523  40.3293873  28.3928238  71.2858457  40.1243263
  23.7699802  71.8761727  35.6497545  23.9264421  71.8108530  36.5053537
  24.1100395  72.6510279  35.4376225  23.8433037  71.9810925  35.7452140
  30.3078947  71.2519610  34.5190909  30.8494492  70.7489991  34.9829529
  30.6225506  71.1984805  33.7080394  30.4343344  71.1699031  34.4674721
  34.1796054  75.4622258  51.6317821  34.9930920  75.1907407  51.7922953
  34.0191021  75.1629798  50.8278017  34.2766003  75.3777184  51.5363227
  28.4765397  76.6436962  31.8030937  28.5458217  75.7851500  31.9423937
  29.2553852  76.8608843  31.4749961  28.6018247  76.5489826  31.7748094
  31.4568216  66.1455915  44.5713209  31.6710186  65.5066829  44.0176563
  30.8402115  66.5901739  44.1421071  31.3973545  66.1166059  44.4263640
  20.3434064  69.0596677  35.9658313  20.7233029  69.4781222  35.3018580
  19.7689429  69.6410133  36.2727156  20.3145389  69.2074536  35.9135053
  33.6207304  67.7544980  45.5096516  32.8083986  67.4470870  45.5909689
  34.0797239  67.2743980  46.0739228  33.5687689  67.6381472  45.6051110
  33.0312559  75.6324652  35.9573460  32.6727214  75.8039295  36.7337493
  32.5451270  76.0937858  35.4001459  32.9071256  75.7263623  35.9898730
  27.8200924  71.3123817  28.4973695  28.1093449  72.0888700  28.7717269
  27.9072723  70.8012549  29.1988194  27.8755181  71.3515736  28.6416193
  30.7160812  69.1605051  50.2925218  31.1860443  69.7847168  50.6793093
  30.7622692  68.4922027  50.8518433  30.7928688  69.1539732  50.4325290
  27.8732085  61.2662079  41.0174022  27.3570574  60.5742270  41.1425601
  27.3126014  61.9332856  40.9636621  27.7138599  61.2625337  41.0280088
  29.9424319  61.8055039  42.8466875  29.5556072  61.8304070  43.6280405
  29.4557256  61.2396718  42.3941391  29.8136828  61.7250790  42.8954778
  34.1917298  76.5228548  46.9040661  34.8297019  76.0288744  46.5703117
  33.5491390  76.4505948  46.3192888  34.1911525  76.4387556  46.7683016
  35.9174298  68.3717694  41.4706577  35.4901906  68.2844043  40.7154677
  35.2800351  68.4795469  42.0561421  35.7603906  68.3750354  41.4452019
  29.6081461  58.6922025  45.1377135  30.2374579  59.2282325  44.8598205
  29.7767323  58.5999383  45.9890700  29.7259255  58.7583387  45.2225663
  29.4095375  63.4793219  47.4103546  30.2368805  63.2078368  47.4662161
  29.4303222  64.2754061  47.7667364  29.5348226  63.5572973  47.4718729
  34.2471555  77.2148356  43.5446018  35.0363933  76.8637421  43.6648100
  34.4215153  78.0284745  43.2822652  34.3891837  77.2834213  43.5233886
  23.9864865  70.6257082  40.5973807  23.1452872  70.5260956  40.8052701
  24.1954873  71.3952562  40.9488128  23.8929558  70.7249125  40.6801122
  21.4640432  68.2476619  38.4258558  21.0697130  68.3219631  37.6508667
  20.9080549  68.6334565  38.9766919  21.3243245  68.3158394  38.3926217
  27.7981530  68.5538481  39.8471404  27.4944668  67.9994469  40.4481812
  27.0960951  68.7330691  39.3599439  27.6497740  68.4983264  39.8641110
  26.8547627  65.8639001  34.4116106  27.1307362  65.1457914  33.9993674
  27.4546297  66.4623921  34.2037212  26.9840892  65.8459372  34.3196868
  23.8773673  73.0200844  42.0165440  23.2861606  73.6610342  41.9868455
  24.6394697  73.4438462  41.9896739  23.9021934  73.1776683  42.0080587
  24.2734296  64.1802842  42.6833457  24.7335778  64.2541771  43.4208581
  24.3190403  64.9784096  42.3333279  24.3484851  64.3096989  42.7406214
  25.9217646  64.8469537  47.2505485  25.5303211  64.2002884  47.6861262
  26.0903508  65.4380972  47.8699740  25.8888556  64.8383805  47.4068191
  39.9964095  72.8506614  43.0142718  40.0547218  73.2993263  43.7602695
  39.3630562  73.2605427  42.5772798  39.9115390  72.9780349  43.0595266
  33.6363189  78.4710156  39.4497464  33.4382878  78.9600970  38.7553676
  33.0150900  78.6751397  40.0281598  33.5150754  78.5726694  39.4320688
  27.6971168  70.2395053  33.7907709  28.4413213  70.6269329  34.0290658
  27.8431864  69.3952478  33.9548196  27.8281753  70.1725526  33.8501678
  29.6150743  62.0345312  38.8239570  28.7686788  62.2068119  38.6980920
  29.6121876  61.2294655  39.1605398  29.4897893  61.9406341  38.8550697
  30.6849044  65.8120526  39.6901628  30.2108998  65.2862288  40.2006939
  31.0567179  65.2649999  39.1216489  30.6698933  65.6536523  39.6816775
  21.0622074  67.8092033  45.0585174  21.9247687  67.7087742  44.9722503
  20.7313857  67.2286742  44.4970746  21.1407270  67.7083659  44.9630580
  36.9485774  70.8722902  41.1008408  36.7083997  70.0329317  41.1050835
  37.4277781  70.9523068  41.8249182  36.9837958  70.7604301  41.2083211
  32.6132543  66.7057081  32.7527382  32.0855562  66.7885825  32.0633091
  33.0728251  67.4474952  32.7492026  32.6034394  66.8277743  32.6502077
  38.9490961  67.6524359  39.0537668  38.7100731  67.6120193  38.2158452
  39.1124862  68.4995511  39.1803389  38.9381265  67.7716444  38.9491149
  35.5536991  72.0374308  44.9842713  36.2771190  71.5846835  44.8053733
  35.2886954  72.3178974  44.2015041  35.6218265  72.0125277  44.8421428
  24.4223860  66.6334482  41.7195592  23.7976930  66.6452874  41.1121545
  24.0869455  67.1094657  42.3686832  24.2809352  66.7052999  41.7252160
  24.6065608  64.9759600  27.7768277  24.2578413  65.6279325  28.2399826
  24.1262054  64.9616713  27.0492148  24.4835852  65.0702654  27.7379368
  21.1349535  74.6934942  43.1599356  20.6049460  74.0027381  43.2094331
  21.4074629  74.6845127  42.3312065  21.0974258  74.5902074  43.0446772
  32.1669626  75.2760644  31.8837039  32.8903825  75.7418757  31.7401612
  31.7270217  75.3434254  31.1334636  32.2085318  75.3544481  31.7521820
  31.3355781  72.1358186  43.1337728  30.7212774  71.5916237  43.4286363
  31.8523066  71.6222423  42.6543544  31.3211443  71.9794595  43.1061956
  30.5752078  73.2062456  40.8682026  30.1479686  72.5812175  40.4347462
  30.5677022  72.9237378  41.6941034  30.5111219  73.0715237  40.9261854
  23.6914605  68.2427629  43.9370460  23.8508092  67.4870954  44.3422182
  23.5107499  68.7918569  44.5911198  23.6879964  68.2121443  44.0933166
  28.9037788  64.0831211  41.0824560  28.9280275  63.5491323  40.3937340
  29.1549261  63.5748520  41.7450151  28.9447706  63.9292115  41.0789205
  16.4145378  71.3662706  40.5167704  16.3088827  71.3209550  39.6519788
  15.6645597  71.7116487  40.7981989  16.2880980  71.4103614  40.4305034
  25.1839110  62.8102029  40.4630305  25.2237482  63.3111236  41.1765012
  24.3588775  62.9012423  40.1936228  25.0678636  62.8983846  40.5280843
  27.3668723  72.3762769  48.5650599  26.5164353  72.5134483  48.7008244
  27.5296851  71.6426547  49.0098301  27.2652586  72.2876870  48.6506198
  26.6053473  69.3262539  42.7604204  25.7745403  69.4936357  42.5539452
  26.5504990  68.9498490  43.5453089  26.4742888  69.2952270  42.8452732
  24.4137257  62.8171432  48.3960614  25.0389960  62.2733565  48.6690047
  23.9587736  62.3366350  47.8268405  24.4385517  62.6660913  48.3522208
  24.9789517  67.6018131  33.2894321  25.1192478  68.0990595  33.9922963
  25.4772050  66.9004425  33.4308535  25.0730598  67.5720109  33.4145900
  25.0089740  68.4685242  30.6186898  25.6434819  69.0645667  30.5536360
  25.0915350  68.1688699  31.4332768  25.1146290  68.5126150  30.7289985
  37.9872305  71.0000719  43.4873262  38.5790146  71.6397970  43.5191460
  38.4231300  70.3023756  43.7765329  38.1390737  70.9919069  43.5354095
  26.5868722  64.3999217  30.5932340  26.9084563  63.9202300  29.9391603
  26.8495666  65.2098863  30.4023152  26.6734748  64.4489115  30.4687832
  29.8165695  75.4218091  44.1131156  29.3090786  75.9753938  44.5571787
  29.5192341  75.4826381  43.2949931  29.6970580  75.5124403  44.0579613
  31.9827877  63.7871411  42.9555819  32.4082949  63.3343937  42.3439346
  31.3684870  63.2331482  43.2320607  31.9556523  63.6385387  42.9060845
  21.5142727  70.6653082  33.8876444  22.0234957  71.2617590  34.2687750
  21.9877000  70.3979056  33.2052864  21.6586103  70.7138898  33.8430967
  35.0121447  68.2145938  35.7876405  34.3412637  68.7575640  35.6589470
  35.7061197  68.6840793  35.5458100  35.0150314  68.3644209  35.7331933
  35.1749574  64.6701821  38.6966778  35.5277184  64.2431544  39.3712577
  34.3164376  64.5852665  38.8267855  35.0999019  64.5946562  38.8161789
  23.8733259  67.3009341  36.7549625  23.1545248  67.7173474  37.0222488
  24.2445621  67.8663580  36.2041263  23.8225191  67.4458622  36.7132432
  33.1732840  67.9337190  42.6451620  33.1530767  67.7520485  43.4986399
  33.2212041  68.8049208  42.6211204  33.1767481  68.0353728  42.7674915
  31.1179170  74.5224382  48.5700097  31.0775025  73.8774059  47.9845253
  31.9302488  74.4660999  48.8825509  31.2322323  74.4183349  48.5297046
  29.6479834  66.3407341  32.0923004  29.0544673  66.6624337  31.5407571
  29.6855111  65.4948436  31.8844110  29.5654223  66.2631669  31.9805775
  36.6073634  59.7920233  39.6251091  36.1004499  59.0849373  39.5572268
  37.4041068  59.4613422  39.7552167  36.6500873  59.6393384  39.6350086
  32.5237650  66.2986845  35.5224754  32.2951343  66.3219547  34.6803113
  32.7835726  65.4744312  35.6419765  32.5283838  66.1802925  35.4149952
  26.8056879  68.1521318  45.1249855  26.2935782  67.5442501  45.4834886
  26.6336375  68.8677911  45.5923830  26.7046516  68.1684618  45.2466078
  21.6522593  66.5958894  47.7752216  21.4825184  67.2560269  47.2300423
  21.2088543  66.8065455  48.4964705  21.5621927  66.7244876  47.8013846
  25.5782413  64.8363392  36.8178950  26.0539779  65.1980471  36.1829131
  25.0771012  65.4919859  37.0979093  25.5747772  64.9857580  36.7655691
  38.8093774  74.3085160  32.6091955  39.1927380  75.0576516  32.8390052
  38.0137887  74.5550979  32.3503944  38.7487556  74.4554854  32.6049529
  30.6825949  66.0745563  47.5652110  31.2397379  65.8459373  46.9330576
  30.3587014  66.8351229  47.2887322  30.7172359  66.1529400  47.4308607
  18.5524658  69.5005759  43.0340706  18.0051377  68.8306405  43.1521574
  19.3417036  69.1335607  43.0984173  18.5876841  69.3470746  43.0609407
  28.4009066  69.1613216  48.5304117  29.1520393  69.4764893  48.8443671
  28.5931643  68.9592387  47.7038039  28.5400480  69.1780598  48.4547513
  27.6209066  66.9804591  30.1852334  28.0008031  66.9984221  29.4003449
  26.8801662  67.4258580  30.0643181  27.5677904  67.0486366  30.0515902
  35.2494356  65.2886783  35.7727913  35.2488583  65.1335439  36.6312189
  35.0450536  66.1349770  35.7169298  35.2194134  65.3907403  35.8915852
  17.3111627  68.7126567  40.1886729  17.1333388  68.2603176  40.9141645
  17.0230649  69.5152728  40.3725207  17.2424580  68.7649125  40.3230232
  32.9735208  69.9684284  39.4264120  33.4688874  69.2507279  39.3868140
  32.1634984  69.6655082  39.3118606  32.9279102  69.8181931  39.4037845
  28.4193820  73.8182098  31.5761124  27.6105143  73.4948771  31.5294433
  28.9268729  73.1115320  31.5089373  28.3743487  73.6663414  31.5591418
  19.0484097  71.2454291  37.3008488  18.1829617  71.2339981  37.1891259
  19.1482913  71.0584514  38.1479628  18.9358264  71.2160352  37.4097433
  35.0387027  72.7187972  42.1141248  35.4642099  72.1962394  41.5611673
  34.6743947  73.3168809  41.5929871  35.0473630  72.7298199  41.9550258
  31.6265627  76.4322236  38.4442406  32.0976805  77.1462499  38.6132391
  31.9625805  75.8320986  38.9802275  31.7460742  76.4493700  38.5474782
  33.7142611  78.0423550  50.6234478  33.8239577  77.2532110  50.9791225
  34.0433508  77.9529486  49.8208816  33.7795017  77.9129402  50.5576869
  28.5435122  61.2049707  45.4000501  28.6763027  60.4080700  45.7281476
  28.9280274  61.7316110  45.9798776  28.6191450  61.1649623  45.5344003
  32.2639573  76.2240170  45.2070098  31.7160519  75.5998054  44.9390164
  32.7252602  76.4134442  44.4914178  32.2506782  76.1599221  45.0620530
  31.6167477  58.1280033  41.9981594  30.8113440  58.0177763  42.3149432
  31.4874212  58.2292489  41.1411460  31.4787610  58.1263703  41.9189634
  35.0733437  64.2925525  42.5921291  34.4896426  64.7934731  42.1798858
  35.3937731  63.7855081  41.9585614  35.0346613  64.2917360  42.4379798
  27.6128236  63.2066120  32.8679966  28.4343931  63.3764433  32.6261660
  27.1497887  63.3613381  32.1446263  27.6659399  63.2547853  32.7251610
  26.2023568  61.2008882  43.6478394  26.7467981  60.8600009  44.2382736
  26.2560504  62.0594343  43.7899679  26.2912688  61.2764141  43.7560268
  31.8297899  77.2291243  41.7379440  32.6496273  77.0854209  41.9995735
  31.5491977  77.8537442  42.2795877  31.9094643  77.3001595  41.8567379
  38.2287021  78.8210811  38.4265630  37.8990351  79.2721955  37.7569328
  37.5532023  78.7426975  38.9738636  38.0797458  78.8761947  38.4088853
  45.4363429  74.8096334  36.6715240  45.1216870  75.4999813  37.1035663
  44.9190371  74.7541117  35.9700741  45.3127900  74.9031223  36.6312189
  36.4342975  76.8823100  33.9088577  37.1888943  77.2501417  33.6705627
  36.2570510  77.2562654  34.6767757  36.5197454  76.9921288  33.9873466
  49.7277874  83.0317540  41.9536117  48.8906295  83.1019727  42.1883711
  49.6966105  83.0342035  41.0810419  49.5996157  83.0427767  41.8595665
  40.4699759  76.2919830  33.6415714  41.1985920  76.1135784  33.1953870
  40.5594652  77.1337909  33.8522892  40.5906421  76.3903708  33.6069232
  47.4085714  78.0960322  40.5379839  48.0511622  78.1658427  41.1241754
  47.6608735  77.4289545  40.0359381  47.5407846  78.0086671  40.5507118
  42.6436996  79.1897293  38.2490792  41.9393323  78.7006479  38.4074711
  42.6921971  79.2019768  37.3779236  42.5467048  79.1186941  38.1430132
  49.8467216  82.8704959  36.2691802  49.5903781  82.0584901  36.0789685
  50.6896530  82.8782526  36.0421990  49.9333242  82.7516957  36.2076620
  44.0270309  76.8104583  41.0067957  44.4080820  76.1282754  41.3935831
  43.2233593  76.5214185  40.8243621  43.9646770  76.6671632  41.0372013
  37.9862149  79.3158782  50.8730565  37.6715590  80.0858344  50.6100128
  37.6652082  78.7529038  50.2882792  37.8921068  79.3469050  50.7471915
  35.5394046  77.7049303  36.4876761  34.6716471  77.7771903  36.5534371
  35.8269250  78.5071382  36.6764737  35.4533794  77.8343450  36.5251528
  44.6626935  77.8527162  44.8188083  45.4080527  77.6636973  44.4051509
  44.2464239  78.3785400  44.2601940  44.7111909  77.9029308  44.6752656
  44.2608577  81.3824309  40.7557727  43.4219678  81.4085588  40.5195991
  44.3312945  82.0295045  41.3363074  44.1476971  81.4820435  40.8066844
  42.7077855  78.2809686  35.4885343  43.4104208  78.0817435  35.0105301
  42.4422044  77.5085629  35.7954187  42.7724488  78.1372652  35.4630785
  37.4706412  79.5444972  44.5416224  37.2789609  79.5600106  45.3915647
  38.3205008  79.7408646  44.5182879  37.5682134  79.5759323  44.6639519
  40.3810639  79.7400481  44.7488047  40.8383253  80.4724455  44.8760839
  40.4566968  79.3166946  45.5075303  40.4601609  79.7857719  44.8789123
  44.8537965  72.9190356  38.6181890  44.9721533  73.3766819  37.8849193
  44.6800140  72.1135617  38.3318108  44.8457136  72.8684128  38.4682824
  41.8215528  74.7741158  39.5600552  40.9509086  74.7479880  39.5133861
  42.0755870  74.6018351  38.7426398  41.7309089  74.7451302  39.4320689
  38.8464669  76.7847387  41.0174022  38.3303158  76.0927578  41.1425601
  38.2858598  77.4518164  40.9636621  38.6871182  76.7810645  41.0280088
  40.9156902  77.3240347  42.8466875  40.5288656  77.3489378  43.6280405
  40.4289840  76.7582026  42.3941391  40.7869411  77.2436098  42.8954778
  40.5814044  74.2107332  45.1377135  41.2107162  74.7467632  44.8598205
  40.7499907  74.1184691  45.9890700  40.6991839  74.2768695  45.2225663
  44.0737963  76.7443221  38.1062437  44.2787556  76.6765529  38.9519434
  43.7464387  77.5502042  38.0383614  44.0553211  76.8529161  38.2222092
  47.3271650  77.2974985  37.5865202  46.7145964  77.7845387  37.9718934
  47.4235825  76.6218476  38.1302853  47.2509548  77.2693294  37.7244060
  41.3290731  79.0537826  32.6862701  41.7834478  79.2248387  33.4110546
  41.8030777  78.4405937  32.2860477  41.4659051  78.9888712  32.7336463
  40.5883327  77.5530620  38.8239570  39.7419372  77.7253427  38.6980920
  40.5854459  76.7479963  39.1605398  40.4630477  77.4591648  38.8550697
  41.6581627  81.3305834  39.6901628  41.1841581  80.8047596  40.2006939
  42.0299763  80.7835307  39.1216489  41.6431516  81.1721831  39.6816775
  49.9223545  83.1709667  39.0537668  49.6833315  83.1305501  38.2158452
  50.0857446  84.0180819  39.1803389  49.9113848  83.2901752  38.9491149
  42.6067492  75.9274173  44.4921250  42.1108053  76.1237847  43.8012817
  43.3636554  76.3266841  44.3210051  42.6454316  76.0151907  44.3641387
  39.8770371  79.6016519  41.0824560  39.9012858  79.0676631  40.3937340
  40.1281845  79.0933828  41.7450151  39.9180290  79.4477423  41.0789205
  36.1571693  78.3287337  40.4630305  36.1970065  78.8296544  41.1765012
  35.3321358  78.4197731  40.1936228  36.0411219  78.4169153  40.5280843
  35.3869840  78.3356740  48.3960614  36.0122544  77.7918873  48.6690047
  34.9320320  77.8551658  47.8268405  35.4118101  78.1846221  48.3522208
  42.9560461  79.3056719  42.9555819  43.3815532  78.8529245  42.3439346
  42.3417454  78.7516790  43.2320607  42.9289106  79.1570695  42.9060845
  41.3954684  75.7771819  36.3646396  40.7523002  75.6269465  36.9331535
  41.0554091  75.5314164  35.5995501  41.2499761  75.7183941  36.3349411
  46.1482158  80.1887129  38.6966778  46.5009768  79.7616852  39.3712577
  45.2896959  80.1037973  38.8267855  46.0731602  80.1131870  38.8161789
  47.5806218  75.3105541  39.6251091  47.0737082  74.6034681  39.5572268
  48.3773652  74.9798730  39.7552167  47.6233457  75.1578692  39.6350086
  43.4970234  81.8172153  35.5224754  43.2683927  81.8404855  34.6803113
  43.7568310  80.9929620  35.6419765  43.5016422  81.6988233  35.4149952
  46.2226940  80.8072091  35.7727913  46.2221166  80.6520747  36.6312189
  46.0183120  81.6535078  35.7169298  46.1926718  80.9092711  35.8915852
  39.5167705  76.7235015  45.4000501  39.6495611  75.9266008  45.7281476
  39.9012858  77.2501418  45.9798776  39.5924034  76.6834931  45.5344003
  42.5900060  73.6465341  41.9981594  41.7846024  73.5363070  42.3149432
  42.4606796  73.7477797  41.1411460  42.4520193  73.6449011  41.9189634
  46.0466021  79.8110833  42.5921291  45.4629010  80.3120039  42.1798858
  46.3670315  79.3040389  41.9585614  46.0079196  79.8102668  42.4379798
  38.5860820  78.7251428  32.8679966  39.4076514  78.8949740  32.6261660
  38.1230471  78.8798689  32.1446263  38.6391982  78.7733161  32.7251610
  37.1756152  76.7194190  43.6478394  37.7200565  76.3785317  44.2382736
  37.2293088  77.5779651  43.7899679  37.2645271  76.7949449  43.7560268
  15.0764623  15.2678302  21.6362363  15.0458627  16.1222939  21.8080632
  15.6745972  14.9673595  22.1948506  15.1601781  15.3494799  21.7437165
   8.2764308  14.3553953  26.3915293   7.4202203  14.5162451  26.4424410
   8.3231961  13.4846017  26.4120354   8.1563419  14.2504755  26.4021359
   2.6605447  23.8916671  22.1552525   1.9088347  23.5132209  21.9268570
   3.1091459  23.9235105  21.4071335   2.6155114  23.8402278  22.0110027
  11.5858024  20.6240479  35.9975749  12.2924792  20.1292510  36.1262684
  11.7745960  21.0649560  35.2678407  11.7185930  20.6158829  35.9084795
   8.1130407  24.3142041  17.5838072   7.7781776  24.9918962  17.1482294
   8.6257278  23.9247352  16.9954944   8.1395988  24.3566619  17.4324863
   7.6534699  26.2656309  23.5249183   8.0374078  26.8343208  22.9853959
   7.5893840  25.5405820  23.0455000   7.7008126  26.2431773  23.3743046
  11.1216129  16.4145997  29.0346945  11.6672089  17.0931084  29.0940915
  11.0633005  16.2733458  28.1748526  11.1932043  16.4937999  28.9159005
   4.2390204  23.9035063  24.4215297   4.3400567  23.0935417  24.7312425
   3.6431949  23.8092010  23.7914976   4.1662742  23.7700091  24.3741536
  12.8981197  17.8430604  19.9080673  12.7820723  18.5938290  20.3372811
  13.6937084  17.5854557  20.1576760  12.9985787  17.9165451  20.0084764
   4.0790943  28.8212652  25.8230153   4.7228399  29.2625816  26.2126312
   4.4047199  28.0166079  25.7360412   4.2222772  28.7677847  25.8675631
   4.7811523  21.8324627  21.1950015   5.1027364  22.3729835  20.5911323
   5.4283619  21.2621399  21.3272305   4.9237578  21.8283802  21.1257050
   6.8313231  13.8340622  21.2784402   7.5293396  14.0128750  21.7705865
   7.1465563  13.3110961  20.6554791   6.9808568  13.7834394  21.2586412
   7.0201166  20.2211067  21.2664193   7.4594802  19.6128168  21.7118966
   6.8705829  19.8418441  20.4949658   7.0622632  20.0749538  21.2183361
   4.4872809  18.8155079  28.4683019   5.1321812  18.3227522  28.1493967
   4.7274586  18.9579866  29.2949097   4.6183394  18.7632521  28.5432552
   7.0258901  21.6609985  28.1189911   7.3082144  20.8661391  27.8976667
   7.7545061  22.1390572  28.1394972   7.1748464  21.6144582  28.0892926
  10.6210503  18.5738248  18.2194962  10.5361798  19.4299215  18.3644531
  11.1094886  18.2982573  18.8877122  10.6799400  18.6595570  18.3397044
  11.5528936  15.1923043  19.7192698  11.0240408  15.4082676  20.3790004
  12.0753956  15.8859181  19.6393667  11.5517389  15.3266180  19.8048297
  17.0076989  20.7669347  25.0925742  16.1774692  20.9779991  25.2559159
  16.9586241  19.9406402  24.8168026  16.8783724  20.6758953  25.0763107
   5.0686727  23.5973201  27.9273652   4.5513668  23.2380616  27.3234960
   5.7661118  23.0735376  27.9379718   5.0952308  23.4670889  27.8403910
   8.7250319  24.0468015  33.8889825   8.8133664  23.8594156  34.7368035
   9.1540031  23.4005445  33.4894671   8.8012421  23.9231023  33.9561576
   6.2920778  23.3299175  32.8707487   5.7291613  22.9171785  33.3947148
   7.0541802  23.2552081  33.2900630   6.3215227  23.2576576  33.0100487
   1.8516770  25.3197196  25.4744117   2.5537349  24.8049186  25.5316873
   1.7714253  25.6471348  26.2790992   1.9440530  25.2911423  25.6016909
  16.5030947  13.4139748  28.8876163  15.6659368  13.4841935  29.1223758
  16.4719178  13.4164243  28.0150466  16.3749230  13.4249975  28.7935711
   2.8995676  15.5572783  34.6024532   3.0716180  15.4478678  35.4509813
   3.4365034  16.2027189  34.3655724   3.0040680  15.6364785  34.6929629
   1.1767545  21.5103548  24.9829725   2.0156445  21.7426481  25.0303487
   1.2079314  20.6407860  24.9136760   1.3049263  21.4160495  24.9794370
   1.8020248  21.9304424  29.2843030   2.3418473  21.7875555  29.9546403
   1.1190195  22.3301174  29.6527057   1.7812402  21.9684095  29.4377452
  11.2261133  17.6095424  24.4788055  11.9818648  18.0426939  24.5176964
  11.3323458  16.9600194  25.0522691  11.3531304  17.5772908  24.5686080
  14.2641304  21.4368702  25.2290458  13.8276536  21.4405444  25.9849429
  13.9304220  22.1174201  24.7970035  14.1503924  21.5381157  25.2771290
   8.8370378  23.4777034  36.5533608   9.6210794  23.5907882  36.9189350
   8.6366972  22.6518171  36.7492294   8.9236403  23.3723754  36.6367994
  14.1838787   8.4782529  27.4719886  14.8264696   8.5480634  28.0581801
  14.4361808   7.8111752  26.9699428  14.3160919   8.3908878  27.4847165
   8.9940771  25.3887136  30.2000064   8.1956017  25.1486636  30.4573932
   9.4426783  25.4401529  30.9467111   8.9415382  25.3609528  30.3484988
  17.3985650  18.1549621  24.1210095  18.0602085  17.5940290  24.0206004
  16.7577062  17.6601652  24.4462786  17.4014518  17.9986030  24.1542435
   8.2862458  21.4519753  16.4291018   8.7013607  21.1204777  15.7375514
   7.4554388  21.2188655  16.3011155   8.2250467  21.3691009  16.3081866
  13.6850481  19.1715004  23.8622084  13.9206070  19.3160203  23.0348934
  13.8340045  19.9357412  24.2553597  13.7416284  19.3054058  23.7985688
   0.6796559  15.6548497  33.2271305   1.4036531  15.6401527  33.7136200
   0.7812695  16.3643852  32.7293273   0.8014768  15.7573200  33.2250092
  15.5140938  18.0116670  21.6991688  15.8449155  18.5444310  21.0931783
  16.0874026  18.0655558  22.3553639  15.6474617  18.0986239  21.7069469
   8.0541508  19.1347581  38.0920252   7.2614489  19.4491093  38.2772872
   8.1690435  19.3499050  37.2541037   7.9536919  19.2131418  37.9958587
  10.7272827  15.8581572  22.3815268  10.8219681  16.5970867  22.8354893
  10.1031671  15.4299048  22.8149832  10.6481857  15.9042893  22.5123415
   8.9825301  19.0367785  33.0305549   9.5564163  18.3995029  33.1854113
   8.9040105  19.0371867  32.1615206   9.0558536  18.9432896  32.9251960
   4.3389019  17.4691050  25.0826746   4.0808264  16.6362785  25.0558046
   4.3937502  17.6948663  24.2419246   4.3088797  17.3788821  24.9546883
   9.4190070   9.5719501  25.1830839   8.7146396   9.0828686  25.3414758
   9.4675044   9.5841975  24.3119283   9.3220121   9.5009149  25.0770179
   3.3123732  15.0228813  25.5691641   2.7373323  15.1820981  26.2055602
   2.9359408  14.3864222  25.1060091   3.1726544  14.9526626  25.5946199
   6.9797020  13.4952162  30.4284019   6.5911453  13.0706380  29.7736210
   6.3151719  13.7434312  30.9361046   6.8243948  13.4690883  30.4071887
  16.6220289  13.2527167  23.2031849  16.3656854  12.4407108  23.0129732
  17.4649603  13.2604734  22.9762037  16.7086315  13.1339164  23.1416666
  10.8023382   7.1926791  27.9408003  11.1833894   6.5104962  28.3275878
   9.9986666   6.9036393  27.7583668  10.7399844   7.0493839  27.9712059
   8.0835959  17.7250767  18.6260826   8.8976597  18.0165659  18.5143598
   8.0195100  17.0710629  18.0519119   8.1938698  17.6715961  18.5249664
  14.3045449  20.4076763  33.0390402  14.0684086  19.5764827  32.9202463
  14.9488678  20.3562370  33.6245246  14.3640119  20.2774451  33.1076295
   3.9543867  21.1972284  23.7533138   4.5917814  20.9584032  24.2984932
   4.3798938  21.4009443  23.0186299   4.1120033  21.1923294  23.7250296
  15.3281869  20.1921211  29.1018696  15.0227686  20.9249268  29.4632012
  14.6088085  19.7859141  28.8211482  15.1769212  20.2402944  29.1131833
   6.3365339  21.6744707  25.4326925   6.4104347  21.5119878  26.2868775
   7.1534845  21.8634896  25.1887406   6.4681697  21.6781449  25.5224950
  21.0283661  16.8314212  28.4287041  20.9608162  16.8510171  27.5589627
  21.0139324  17.6744539  28.6542711  21.0162418  16.9587947  28.3339518
  11.4380008   8.2349370  31.7528130  12.1833600   8.0459180  31.3391555
  11.0217313   8.7607608  31.1941986  11.4864982   8.2851515  31.6092703
   4.8769924  24.6379450  20.1640398   5.1668223  24.2468431  19.4399625
   5.6073405  24.8196155  20.6045673   5.0276809  24.6073263  20.1223205
  18.8142279  15.6058598  26.7033635  19.3650200  14.9726667  26.9430727
  18.7986394  16.1373991  27.3949139  18.8927475  15.5907546  26.8412493
   5.4664670  19.4397196  31.2493528   4.9676363  20.1512963  31.3278417
   6.2764894  19.7597862  31.2111691   5.5120776  19.5924044  31.2550097
   2.8175840  26.6146832  23.2300548   2.5976135  26.3244187  24.0227215
   2.5970362  25.9561787  22.7018460   2.7523434  26.4746540  23.2689456
   1.7292787  18.7020149  25.4956249   1.4406036  18.0757620  26.0301977
   2.5976135  18.6440436  25.5620930   1.8153039  18.6007693  25.5847204
  12.5170685  13.8454932  25.8138231  12.1735451  13.1245267  26.1645481
  12.6163728  13.6368783  24.9716589  12.4812728  13.7079135  25.7409911
   4.9843796  27.9876222  22.0131240   5.6367854  27.4552664  22.2422266
   4.2869404  27.6344874  22.3999114   4.9774514  27.8565745  22.1043408
   1.9325061  20.3415400  21.4198614   2.6871029  20.7228439  21.6334077
   1.3395673  20.7926543  21.8745311   1.9561774  20.4644227  21.5181493
  12.9783714  20.3080636  21.3562219  13.5441747  20.9673846  21.2720762
  12.3311618  20.6530334  21.8278622  12.9662471  20.4562577  21.4134976
   4.3931728  12.2978240  36.5455827   3.5831503  12.6036020  36.4345669
   4.8706414  13.0183822  36.6608411   4.3435206  12.4492841  36.5462898
   3.2523287  21.5123961  26.7938730   2.7304041  21.6524253  27.4790594
   3.6397308  20.7534625  26.9840847   3.2326988  21.4209485  26.9239806
   9.4490292  23.2519420  20.7799299   9.2076968  22.5187281  20.3726364
   9.6291625  23.8006277  20.1265632   9.4397916  23.2241811  20.6229522
   4.6789613  18.5427980  22.1920221   4.4832395  19.1502715  21.5980524
   4.9023958  17.8495924  21.7111895   4.6824254  18.5305506  22.0336302
   3.0768143  15.4282718  22.3101089   3.7990795  15.5923876  21.8504895
   2.5976136  16.1492383  22.2040429   3.1131874  15.5580948  22.2266703
  11.0361650  11.7646517  27.6897774  10.1972751  11.7907796  27.4536037
  11.1066018  12.4117252  28.2703121  10.9230044  11.8642643  27.7406891
   9.4830929   8.6631894  22.4225390  10.1857282   8.4639642  21.9445348
   9.2175117   7.8907836  22.7294234   9.5477561   8.5194860  22.3970832
  14.9119174  16.9714504  24.9759016  14.8253149  17.1269930  25.8293795
  14.4569654  17.6152579  24.6018421  14.8322431  17.0890259  25.0466123
   4.2459485   9.9267179  31.4756271   4.0542682   9.9422313  32.3255694
   5.0958081  10.1230853  31.4522926   4.3435207   9.9581530  31.5979565
   8.7844990  14.2925251  23.5984575   8.5379705  14.2121002  24.4321364
   9.1130113  13.5078718  23.4047103   8.7966234  14.1651516  23.6932098
  12.6793039  21.0008610  27.3871357  12.5407398  21.6989656  27.8920099
  11.8993037  20.8457266  27.0307538  12.5436266  21.0808777  27.4097631
  11.0171124  17.3004985  33.6393738  11.0119163  16.4284802  33.6436165
  11.7232118  17.4993154  33.1663194  11.1216128  17.2008859  33.5700774
   4.7442018  17.0281969  33.0107558   4.8885393  17.6083177  32.3750668
   5.0917666  17.4058266  33.7157413   4.8169479  17.1702673  33.0206553
   6.9161935  16.2272138  30.7932690   6.1685249  16.4203152  30.3880968
   7.0703460  15.4017357  30.5556811   6.8284363  16.1337249  30.6978096
   3.8169773  25.2184741  29.8768585   3.9659336  24.6587657  29.2241990
   4.5969775  25.2976743  30.2601104   3.9543866  25.1470306  29.8365534
  14.1746412  20.3586864  18.1487856  13.7953221  19.5724002  18.1417145
  13.5112657  20.9073721  18.0059500  14.0204887  20.3231688  18.1268653
   6.3423073  25.3899384  31.1553076   6.2666744  24.7208194  31.7103864
   6.2712932  26.0917172  31.6693742   6.3203680  25.3944291  31.3129924
   7.1563712  10.1222688  31.6828094   7.6136326  10.8546663  31.8100886
   7.2320041   9.6989154  32.4415350   7.2354682  10.1679926  31.8129170
   6.9993320  23.9100383  21.9876682   7.7643211  23.6410026  21.6659346
   6.8971410  23.4250393  22.7046745   7.0974816  23.7989947  22.0456510
   5.0346090  12.1124792  28.5269918   4.2442165  11.9316252  28.8487254
   5.4306713  11.3351745  28.5100212   4.9762966  11.9712253  28.5722466
  10.4189776  19.7467222  26.2529364   9.7434778  19.5152455  26.7542751
  10.4282152  19.1388405  25.6271469  10.3208281  19.6226148  26.2345516
   7.5483920  14.5885051  33.0093417   7.4843061  15.4495008  32.8813553
   7.6881108  14.2717045  32.2088968   7.5599390  14.6685218  32.8721630
  12.4206511  22.6032355  18.4839542  12.5026348  23.4099341  18.1600993
  12.9056253  22.6228314  19.2080315  12.5043669  22.7253017  18.5426440
   6.2303014  17.2817191  27.1509620   5.8065263  17.4821690  26.4148638
   6.0547869  16.4346039  27.2633919   6.1413895  17.1865972  27.0583310
   1.5185459  17.7769242  22.5837592   1.6750078  17.7116045  23.4393584
   1.8586052  18.5517795  22.3716272   1.5918694  17.8818440  22.6792186
   8.0564604  17.1527126  21.4530955   8.5980149  16.6497507  21.9169576
   8.3711163  17.0992320  20.6420441   8.1829001  17.0706547  21.4014767
  11.9281711  21.3629773  38.5657868  12.7416576  21.0914922  38.7263000
  11.7676677  21.0637313  37.7618063  12.0251660  21.2784699  38.4703273
   6.2251053  22.5444477  18.7370983   6.2943874  21.6859016  18.8763984
   7.0039509  22.7616358  18.4090008   6.3503903  22.4497341  18.7088141
   9.2053873  12.0463430  31.5053256   9.4195843  11.4074344  30.9516610
   8.5887772  12.4909254  31.0761118   9.1459202  12.0173574  31.3603687
  10.6158541  24.9682179  22.9507477  10.2238333  24.6648894  22.2330343
  10.7711613  25.8051268  22.7612431  10.5812131  25.0466015  22.8163974
  11.3692961  13.6552495  32.4436563  10.5569643  13.3478386  32.5249736
  11.8282896  13.1751496  33.0079275  11.3173346  13.5388988  32.5391157
  10.7798216  21.5332167  22.8913507  10.4212870  21.7046810  23.6677540
  10.2936926  21.9945373  22.3341506  10.6556913  21.6271138  22.9238776
   8.4646469  15.0612567  37.2265265   8.9346100  15.6854683  37.6133139
   8.5108349  14.3929542  37.7858480   8.5414344  15.0547247  37.3665337
  11.9402955  22.4236063  33.8380708  12.5782676  21.9296259  33.5043164
  11.2977047  22.3513464  33.2532935  11.9397182  22.3395072  33.7023063
  13.6659955  14.2725209  28.4046624  13.2387563  14.1851558  27.6494723
  13.0286008  14.3802985  28.9901468  13.5089562  14.2757869  28.3792065
   7.1581032   9.3800735  34.3443593   7.9854462   9.1085883  34.4002208
   7.1788878  10.1761576  34.7007411   7.2833882   9.4580489  34.4058776
  11.9957212  23.1155872  30.4786065  12.7849590  22.7644936  30.5988147
  12.1700809  23.9292260  30.2162699  12.1377493  23.1841729  30.4573933
   1.7350522  16.5264597  27.5313854   0.8938529  16.4268471  27.7392748
   1.9440530  17.2960078  27.8828174   1.6415215  16.6256641  27.6141169
  10.8491036   7.1265428  25.0402483  11.0540629   7.0587736  25.8859480
  10.5217460   7.9324250  24.9723661  10.8306284   7.2351369  25.1562138
   5.5467187  14.4545997  26.7811451   5.2430324  13.9001985  27.3821859
   4.8446608  14.6338206  26.2939485   5.3983397  14.3990779  26.7981157
   3.6085538  21.6695717  31.4883549   3.5005893  21.6797779  32.3545607
   3.8181319  22.4950498  31.2988503   3.6235649  21.7936792  31.5887641
  14.1024724   7.6797193  24.5205249  13.4899037   8.1667595  24.9058981
  14.1988898   7.0040683  25.0642900  14.0262621   7.6515501  24.6584107
   1.6259330  18.9208360  28.9505487   1.0347263  19.5617858  28.9208502
   2.3880354  19.3445977  28.9236786   1.6507591  19.0784198  28.9420634
   3.6703302  10.7477052  34.1845531   3.2788868  10.1010399  34.6201309
   3.8389165  11.3388488  34.8039787   3.6374213  10.7391320  34.3408237
  17.7449752  18.7514129  29.9482765  17.8032875  19.2000778  30.6942741
  17.1116219  19.1612942  29.5112845  17.6601047  18.8787864  29.9935313
  11.3848846  24.3717671  26.3837511  11.1868535  24.8608486  25.6893722
  10.7636557  24.5758913  26.9621644  11.2636411  24.4734209  26.3660734
   5.4456825  16.1402568  20.7247755   6.1898869  16.5276844  20.9630705
   5.5917521  15.2959993  20.8888243   5.5767410  16.0733041  20.7841725
   8.4334700  11.7128041  26.6241675   7.9594655  11.1869803  27.1346986
   8.8052836  11.1657514  26.0556536   8.4184589  11.5544038  26.6156822
  14.6971431  16.7730417  28.0348455  14.4569654  15.9336832  28.0390882
  15.1763438  16.8530584  28.7589229  14.7323615  16.6611817  28.1423258
  16.6976618  13.5531874  25.9877714  16.4586388  13.5127708  25.1498499
  16.8610519  14.4003026  26.1143435  16.6866921  13.6723959  25.8831196
  13.3022648  17.9381823  31.9182759  14.0256847  17.4854350  31.7393779
  13.0372610  18.2186489  31.1355087  13.3703921  17.9132792  31.7761475
   2.1709517  12.5341997  28.6535639   1.5462587  12.5460389  28.0461591
   1.8355111  13.0102172  29.3026879   2.0295008  12.6060514  28.6592207
   9.9155283  21.1768159  18.8177086  10.6389481  21.6426272  18.6741659
   9.4755874  21.2441769  18.0674683   9.9570975  21.2551996  18.6861867
   9.0841438  18.0365702  30.0677775   8.4698431  17.4923752  30.3626410
   9.6008723  17.5229938  29.5883591   9.0697100  17.8802111  30.0402003
   8.3237735  19.1069972  27.8022073   7.8965343  18.4819690  27.3687509
   8.3162679  18.8244894  28.6281080   8.2596876  18.9722752  27.8601901
   1.4400262  14.1435145  30.8710507   1.5993749  13.3878469  31.2762229
   1.2593155  14.6926084  31.5251245   1.4365621  14.1128959  31.0273213
   9.3820565   6.3096380  31.4261297   8.8861126   6.5060055  30.7352863
  10.1389627   6.7089049  31.2550098   9.4207390   6.3974114  31.2981433
   6.6523444   9.9838726  28.0164607   6.6765932   9.4498839  27.3277387
   6.9034918   9.4756035  28.6790198   6.6933363   9.8299630  28.0129252
   5.1154380  18.2770285  35.4990646   4.2650010  18.4141999  35.6348291
   5.2782507  17.5434063  35.9438348   5.0138243  18.1884386  35.5846245
   4.3539130  15.2270054  29.6944251   3.5231060  15.3943872  29.4879499
   4.2990647  14.8506005  30.4793136   4.2228545  15.1959786  29.7792779
  15.7357962  16.9008234  30.4213309  16.3275802  17.5405485  30.4531507
  16.1716957  16.2031271  30.7105376  15.8876393  16.8926585  30.4694142
   7.5651352  21.3225607  31.0471203   7.0576443  21.8761454  31.4911834
   7.2677998  21.3833897  30.2289978   7.4456237  21.4131918  30.9919660
   9.7313534   9.6878926  29.8895866  10.1568606   9.2351453  29.2779393
   9.1170527   9.1338997  30.1660654   9.7042180   9.5392903  29.8400891
  10.1759132  25.2388864  18.9775147   9.4588442  25.0649727  18.5122384
  10.8265870  25.0041437  18.4450633  10.1660983  25.1784657  18.8304365
  12.7607103  14.1153453  22.7216452  12.0898293  14.6583155  22.5929517
  13.4546854  14.5848308  22.4798147  12.7635971  14.2651724  22.6671979
   6.8093837  26.2550165  27.9528210   6.5859492  25.4968994  28.3212236
   6.3203681  26.2848186  27.2308650   6.7037286  26.1472389  27.9004951
  12.9235231  10.5709337  25.6306825  13.2762841  10.1439059  26.3052624
  12.0650032  10.4860180  25.7607901  12.8484676  10.4954077  25.7501835
   1.6218916  13.2016856  23.6889671   0.9030905  13.6180989  23.9562535
   1.9931278  13.7671095  23.1381310   1.5710848  13.3466138  23.6472478
  10.9218497  13.8344705  29.5791667  10.9016424  13.6528000  30.4326446
  10.9697697  14.7056724  29.5551251  10.9253138  13.9361243  29.7014962
   8.8664827  20.4231897  35.5040144   8.8260681  19.7781574  34.9185300
   9.6788145  20.3668515  35.8165556   8.9807980  20.3190864  35.4637093
   5.4572294  26.4750623  25.4065295   5.0432693  25.8124753  25.0169136
   6.1419668  26.6228482  24.8860989   5.4970666  26.3991281  25.2721792
   8.8237588  25.6340708  26.1588911   8.4253871  25.7442979  25.3909731
   8.2088808  25.8422775  26.7415471   8.6736478  25.6814276  26.1320211
  14.3559291   5.6927748  26.5591137  13.8490156   4.9856888  26.4912315
  15.1526725   5.3620937  26.6892214  14.3986530   5.5400900  26.5690132
  10.2723307  12.1994361  22.4564801  10.0437000  12.2227062  21.6143159
  10.5321383  11.3751828  22.5759812  10.2769495  12.0810441  22.3489999
   4.5542535  14.0528834  32.0589901   4.0421438  13.4450017  32.4174933
   4.3822031  14.7685426  32.5263877   4.4532172  14.0692133  32.1806125
   3.3268069  10.7370907  23.7518997   3.8025436  11.0987987  23.1169178
   2.8256669  11.3927375  24.0319140   3.3233428  10.8865096  23.6995738
  16.5579431  20.2092675  19.5432002  16.9413037  20.9584031  19.7730099
  15.7623544  20.4558495  19.2843991  16.4973213  20.3562369  19.5389575
   8.4311606  11.9753078  34.4992157   8.9883036  11.7466888  33.8670622
   8.1072671  12.7358744  34.2227369   8.4658016  12.0536915  34.3648654
   6.1494723  15.0620732  35.4644164   6.9006050  15.3772408  35.7783718
   6.3417299  14.8599903  34.6378086   6.2886137  15.0788113  35.3887560
  12.9980013  11.1894298  22.7067959  12.9974239  11.0342955  23.5652236
  12.7936193  12.0357285  22.6509345  12.9679791  11.2914919  22.8255899
  10.7220865  15.8691800  26.3604166  11.2174530  15.1514795  26.3208187
   9.9120641  15.5662597  26.2458653  10.6764758  15.7189446  26.3377892
   6.1679477  19.7189613  18.5101171   5.3590799  19.3956287  18.4634480
   6.6754385  19.0122835  18.4429419   6.1229143  19.5670929  18.4931465
  12.7872684  18.6195487  29.0481295  13.2127756  18.0969909  28.4951720
  12.4229604  19.2176325  28.5269918  12.7959287  18.6305714  28.8890305
   2.4226764  26.9159705  27.8078641   2.7373323  27.7296093  27.8156422
   2.8320177  26.5309923  28.4760800   2.5294862  26.9788407  27.9082732
   9.3751283  22.3329752  25.3782453   9.8462462  23.0470014  25.5472438
   9.7111462  21.7328502  25.9142322   9.4946398  22.3501216  25.4814829
  11.4628268  23.9431065  37.5574525  11.5725233  23.1539625  37.9131272
  11.7919165  23.8537001  36.7548863  11.5280674  23.8136918  37.4916915
  10.0125230  22.1247686  32.1410145   9.4646176  21.5005569  31.8730211
  10.4738258  22.3141958  31.4254225   9.9992439  22.0606736  31.9960576
  12.8219094  10.1933040  29.5261338  12.2382083  10.6942247  29.1138905
  13.1423388   9.6862596  28.8925661  12.7832269  10.1924875  29.3719845
   9.5783556  23.1298758  28.6719486  10.3981930  22.9861724  28.9335782
   9.2977634  23.7544957  29.2135924   9.6580299  23.2009110  28.7907426
  19.2496891  29.8739261  26.3915293  18.3934787  30.0347759  26.4424410
  19.2964545  29.0031325  26.4120354  19.1296003  29.7690063  26.4021359
  13.6338031  39.4101979  22.1552525  12.8820931  39.0317517  21.9268570
  14.0824043  39.4420413  21.4071335  13.5887698  39.3587586  22.0110027
  19.0862991  39.8327348  17.5838072  18.7514359  40.5104270  17.1482294
  19.5989861  39.4432660  16.9954944  19.1128572  39.8751927  17.4324863
  18.6267282  41.7841617  23.5249183  19.0106661  42.3528516  22.9853959
  18.5626423  41.0591127  23.0455000  18.6740709  41.7617081  23.3743046
  15.2122787  39.4220371  24.4215297  15.3133150  38.6120725  24.7312425
  14.6164532  39.3277318  23.7914976  15.1395326  39.2885399  24.3741536
  23.8713781  33.3615912  19.9080673  23.7553307  34.1123598  20.3372811
  24.6669668  33.1039865  20.1576760  23.9718370  33.4350759  20.0084764
  15.0523527  44.3397960  25.8230153  15.6960982  44.7811124  26.2126312
  15.3779782  43.5351386  25.7360412  15.1955355  44.2863155  25.8675631
   8.4087831  35.4440658  24.0467631   8.1738016  34.6108310  23.9399900
   8.5473472  35.7245323  23.2328832   8.3943494  35.3624161  23.9109986
  10.7077919  27.6126388  26.9451939  10.0882951  27.0219036  26.7761953
  10.6061782  28.2037824  26.3116262  10.6015594  27.6130471  26.8256928
  15.7544106  37.3509935  21.1950015  16.0759948  37.8915142  20.5911323
  16.4016203  36.7806707  21.3272305  15.8970162  37.3469110  21.1257050
  17.8045815  29.3525930  21.2784402  18.5025979  29.5314058  21.7705865
  18.1198147  28.8296269  20.6554791  17.9541152  29.3019702  21.2586412
  10.4347052  31.1578670  29.1895508  10.3105749  31.7441115  29.8245326
  11.0865336  30.6638866  29.4907783  10.5120701  31.1717474  29.3281437
  17.9933750  35.7396375  21.2664193  18.4327385  35.1313476  21.7118966
  17.8438413  35.3603748  20.4949658  18.0355216  35.5934846  21.2183361
  15.4605393  34.3340387  28.4683019  16.1054395  33.8412830  28.1493967
  15.7007170  34.4765174  29.2949097  15.5915978  34.2817829  28.5432552
  17.9991484  37.1795293  28.1189911  18.2814727  36.3846699  27.8976667
  18.7277645  37.6575880  28.1394972  18.1481048  37.1329890  28.0892926
  15.9772678  24.7218327  25.3605676  15.6476008  25.1729470  24.6909375
  15.3017680  24.6434490  25.9078683  15.8283114  24.7769462  25.3428900
  21.5943086  34.0923556  18.2194962  21.5094382  34.9484523  18.3644531
  22.0827470  33.8167880  18.8877122  21.6531984  34.1780878  18.3397044
  23.1849086  20.7103850  23.6055287  22.8702527  21.4007328  24.0375709
  22.6676028  20.6548632  22.9040788  23.0613556  20.8038738  23.5652236
  22.5261520  30.7108351  19.7192698  21.9972991  30.9267984  20.3790004
  23.0486540  31.4044489  19.6393667  22.5249973  30.8451487  19.8048297
  14.4161127  34.6071567  18.5200166  13.8318343  35.1121599  18.9266029
  14.0131223  34.3813954  17.7796758  14.2700431  34.6479816  18.4705191
   9.9705156  40.3226328  25.3223837   9.4872734  41.0476818  25.2983421
  10.7828474  40.6202459  25.4333995  10.0195904  40.4728682  25.3351116
  16.0419310  39.1158509  27.9273652  15.5246252  38.7565924  27.3234960
  16.7393701  38.5920684  27.9379718  16.0684891  38.9856197  27.8403910
  18.8738342  30.8537219  16.9969086  19.1134346  31.0615203  16.1844429
  19.1954183  30.0494728  17.1058031  18.9575500  30.7651321  16.8929639
  14.1828632  22.7830615  20.8428624  14.9374600  23.1508932  20.6045674
  14.0056167  23.1570170  21.6107804  14.2683111  22.8928803  20.9213513
  12.8249353  40.8382504  25.4744117  13.5269933  40.3234493  25.5316873
  12.7446836  41.1656656  26.2790992  12.9173114  40.8096731  25.6016909
  13.8728260  31.0758091  34.6024532  14.0448764  30.9663986  35.4509813
  14.4097617  31.7212497  34.3655724  13.9773264  31.1550093  34.6929629
  12.5385697  25.1900934  17.5406737  12.3561270  25.4072815  16.7147730
  13.4011310  25.3039947  17.5965352  12.6390286  25.2390832  17.4261224
  12.1500129  37.0288856  24.9829725  12.9889028  37.2611789  25.0303487
  12.1811898  36.1593168  24.9136760  12.2781846  36.9345803  24.9794370
  12.7752832  37.4489732  29.2843030  13.3151057  37.3060863  29.9546403
  12.0922778  37.8486482  29.6527057  12.7544986  37.4869402  29.4377452
  18.2185416  22.1927345  20.5755761  18.9471576  22.0143300  20.1293917
  18.3080309  23.0345425  20.7862939  18.3392078  22.2911223  20.5409279
   8.1789977  33.6690022  29.4377452   7.9128392  32.8529139  29.5968442
   8.1928541  33.7143178  28.5672968   8.1414699  33.5546927  29.3330934
  12.0847724  28.4675107  16.0529210  11.3705901  28.1813286  16.4651643
  12.5691693  28.8071733  16.6935598  12.0507087  28.4756756  16.2084845
  12.9288583  27.2068401  32.0844460  12.2360380  26.7365380  32.3305191
  13.5448911  26.9806705  32.6586167  12.9173113  27.1035532  32.2053612
  19.2595042  36.9705061  16.4291018  19.6746190  36.6390085  15.7375514
  18.4286971  36.7373963  16.3011155  19.1983050  36.8876317  16.3081866
   8.5883391  34.4548802  26.7189196   8.4058964  34.4295688  25.8661488
   9.3233059  34.9247740  26.7578105   8.6697454  34.5210164  26.5987115
  11.6529142  31.1733805  33.2271305  12.3769115  31.1586835  33.7136200
  11.7545279  31.8829160  32.7293273  11.7747351  31.2758508  33.2250092
  26.4873521  33.5301978  21.6991688  26.8181739  34.0629618  21.0931783
  27.0606610  33.5840865  22.3553639  26.6207201  33.6171547  21.7069469
  19.0274092  34.6532889  38.0920252  18.2347072  34.9676401  38.2772872
  19.1423019  34.8684358  37.2541037  18.9269502  34.7316726  37.9958587
  21.7005411  31.3766880  22.3815268  21.7952265  32.1156174  22.8354893
  21.0764254  30.9484356  22.8149832  21.6214441  31.4228201  22.5123415
   8.5554301  31.3342302  26.8688263   9.1327804  31.1978753  27.5080508
   7.8568363  30.8778087  27.1233847   8.5375322  31.2464569  27.0010553
  21.9528432  33.2215620  15.6152220  21.8708594  33.2917807  16.4807207
  22.5908152  33.7845364  15.4235960  22.0348269  33.3154591  15.7142169
  15.3121603  32.9876358  25.0826746  15.0540847  32.1548093  25.0558046
  15.3670086  33.2133971  24.2419246  15.2821381  32.8974129  24.9546883
  20.3922653  25.0904809  25.1830839  19.6878980  24.6013994  25.3414758
  20.4407628  25.1027283  24.3119283  20.2952705  25.0194457  25.0770179
  14.2856315  30.5414121  25.5691641  13.7105906  30.7006289  26.2055602
  13.9091991  29.9049530  25.1060091  14.1459128  30.4711934  25.5946199
  17.9529604  29.0137470  30.4284019  17.5644037  28.5891688  29.7736210
  17.2884302  29.2619620  30.9361046  17.7976532  28.9876191  30.4071887
   4.0313134  30.1854195  23.5836081   4.1173386  29.8086064  24.3649611
   4.6588932  29.8114641  23.1056040   4.1369685  30.0739678  23.6281559
  19.0568542  33.2436074  18.6260826  19.8709181  33.5350967  18.5143598
  18.9927683  32.5895937  18.0519119  19.1671281  33.1901269  18.5249664
  14.9276450  36.7157592  23.7533138  15.5650397  36.4769339  24.2984932
  15.3531522  36.9194751  23.0186299  15.0852617  36.7108602  23.7250296
   9.6189093  38.9545928  27.6367442   9.6593238  39.2260779  26.8087222
  10.1783617  39.4787836  28.0525230   9.7072439  39.0721683  27.5759330
  15.5679265  31.9359882  18.0908028  15.9524418  31.7167588  18.8424573
  15.3190886  32.7622827  18.2209104  15.5881338  32.0258028  18.2209104
  15.7347806  25.2166297  37.8070612  15.4201247  25.9865860  37.5440175
  15.4137738  24.6536553  37.2222839  15.6406725  25.2476566  37.6811962
  17.3097922  37.1930015  25.4326925  17.3836931  37.0305186  26.2868775
  18.1267429  37.3820204  25.1887406  17.4414281  37.1966757  25.5224950
  11.0703679  37.5387877  22.4621368  10.2441797  37.7849615  22.3355647
  11.1315670  37.4599958  23.3283426  10.9577846  37.5632826  22.5710313
  13.2879703  23.6056818  23.4216808  12.4202128  23.6779418  23.4874417
  13.5754907  24.4078897  23.6104783  13.2019451  23.7350965  23.4591575
  15.8502508  40.1564758  20.1640398  16.1400806  39.7653739  19.4399625
  16.5805989  40.3381462  20.6045673  16.0009392  40.1258571  20.1223205
  16.4397253  34.9582503  31.2493528  15.9408947  35.6698271  31.3278417
  17.2497477  35.2783170  31.2111691  16.4853360  35.1109352  31.2550097
  13.7908424  42.1332140  23.2300548  13.5708719  41.8429495  24.0227215
  13.5702946  41.4747095  22.7018460  13.7256018  41.9931848  23.2689456
  12.7025371  34.2205456  25.4956249  12.4138619  33.5942928  26.0301977
  13.5708719  34.1625744  25.5620930  12.7885623  34.1193001  25.5847204
  15.9576379  43.5061530  22.0131240  16.6100437  42.9737972  22.2422266
  15.2601988  43.1530182  22.3999114  15.9507097  43.3751053  22.1043408
  12.9057644  35.8600708  21.4198614  13.6603612  36.2413747  21.6334077
  12.3128257  36.3111851  21.8745311  12.9294358  35.9829535  21.5181493
  23.9516298  35.8265944  21.3562219  24.5174330  36.4859154  21.2720762
  23.3044201  36.1715642  21.8278622  23.9395054  35.9747885  21.4134976
  15.3664311  27.8163548  36.5455827  14.5564087  28.1221328  36.4345669
  15.8438998  28.5369130  36.6608411  15.3167790  27.9678149  36.5462898
  14.2255871  37.0309269  26.7938730  13.7036624  37.1709561  27.4790594
  14.6129891  36.2719933  26.9840847  14.2059572  36.9394793  26.9239806
  11.2147055  27.0815078  20.8633684  10.9271851  26.7116348  20.1265632
  11.9017523  27.5509933  20.6017389  11.2735952  27.0962047  20.7148760
  20.4222876  38.7704728  20.7799299  20.1809552  38.0372589  20.3726364
  20.6024209  39.3191585  20.1265632  20.4130500  38.7427119  20.6229522
  15.6522196  34.0613288  22.1920221  15.4564979  34.6688022  21.5980524
  15.8756542  33.3681232  21.7111895  15.6556837  34.0490813  22.0336302
  14.0500726  30.9468026  22.3101089  14.7723378  31.1109184  21.8504895
  13.5708719  31.6677691  22.2040429  14.0864457  31.0766255  22.2266703
  11.7008343  33.3526098  31.4155229  12.2129440  33.6310352  30.7663989
  11.4144686  34.0915392  31.7818042  11.7343206  33.5028452  31.3745107
  20.4563512  24.1817202  22.4225390  21.1589865  23.9824950  21.9445348
  20.1907701  23.4093144  22.7294234  20.5210145  24.0380168  22.3970832
   8.7875249  27.8596290  21.7118966   8.8891386  28.6622452  22.0399941
   9.5831136  27.6583626  21.4142046   8.9203155  27.9482189  21.7154321
  15.2192069  25.4452487  31.4756271  15.0275266  25.4607621  32.3255694
  16.0690664  25.6416161  31.4522926  15.3167790  25.4766838  31.5979565
   9.6038982  27.9743468  29.4540087   9.4624473  27.1227409  29.5784595
   9.8879545  28.0172129  28.6302293   9.6246828  27.8543218  29.3507711
  19.7577574  29.8110559  23.5984575  19.5112288  29.7306309  24.4321364
  20.0862697  29.0264026  23.4047103  19.7698817  29.6836824  23.6932098
  15.7174601  32.5467277  33.0107558  15.8617977  33.1268485  32.3750668
  16.0650250  32.9243574  33.7157413  15.7902063  32.6887981  33.0206553
  14.7902356  40.7370049  29.8768585  14.9391920  40.1772965  29.2241990
  15.5702358  40.8162051  30.2601104  14.9276450  40.6655614  29.8365534
  25.1478996  35.8772172  18.1487856  24.7685804  35.0909310  18.1417145
  24.4845241  36.4259029  18.0059500  24.9937470  35.8416996  18.1268653
  18.1296296  25.6407996  31.6828094  18.5868910  26.3731971  31.8100886
  18.2052624  25.2174461  32.4415350  18.2087265  25.6865234  31.8129170
  10.3729287  25.8873816  32.7717537   9.8371476  25.2754174  33.0878305
  10.4347052  26.4621952  33.4251204  10.3024919  25.8820744  32.9152964
  22.6023621  18.8197871  25.5521937  22.7207190  19.2774335  24.8189239
  22.4285797  18.0143133  25.2658154  22.5942792  18.7691644  25.4022870
  17.9725904  39.4285691  21.9876682  18.7375795  39.1595334  21.6659346
  17.8703994  38.9435701  22.7046745  18.0707399  39.3175255  22.0456510
  16.0078673  27.6310100  28.5269918  15.2174748  27.4501560  28.8487254
  16.4039296  26.8537053  28.5100212  15.9495550  27.4897561  28.5722466
  20.4944564  36.4597874  13.9676631  21.2617549  36.5197999  13.5582483
  20.0475873  35.8878316  13.4832950  20.5417991  36.3834450  13.8354342
  21.3922360  35.2652530  26.2529364  20.7167362  35.0337763  26.7542751
  21.4014736  34.6573713  25.6271469  21.2940864  35.1411455  26.2345516
  18.5216504  30.1070359  33.0093417  18.4575645  30.9680316  32.8813553
  18.6613691  29.7902352  32.2088968  18.5331974  30.1870526  32.8721630
  23.3939094  38.1217663  18.4839542  23.4758932  38.9284649  18.1600993
  23.8788837  38.1413622  19.2080315  23.4776252  38.2438325  18.5426440
  17.2035598  32.8002499  27.1509620  16.7797847  33.0006998  26.4148638
  17.0280453  31.9531347  27.2633919  17.1146478  32.7051280  27.0583310
  16.7047291  44.3153012  29.6131077  17.1943221  43.6163801  29.4306742
  16.1331523  44.0176882  30.2007134  16.6931821  44.1679235  29.6732118
  12.4918043  33.2954550  22.5837592  12.6482662  33.2301353  23.4393584
  12.8318636  34.0703103  22.3716272  12.5651277  33.4003748  22.6792186
  19.0297187  32.6712434  21.4530955  19.5712733  32.1682815  21.9169576
  19.3443746  32.6177628  20.6420441  19.1561584  32.5891855  21.4014767
  17.1983637  38.0629785  18.7370983  17.2676457  37.2044324  18.8763984
  17.9772092  38.2801666  18.4090008  17.3236487  37.9682649  18.7088141
  21.5891125  40.4867486  22.9507477  21.1970916  40.1834202  22.2330343
  21.7444197  41.3236576  22.7612431  21.5544714  40.5651323  22.8163974
   9.0652304  30.4789501  22.8998359   9.4451269  30.8974045  22.2358627
   8.4907669  31.0602956  23.2067203   9.0363629  30.6267359  22.8475100
  21.7530799  37.0517475  22.8913507  21.3945454  37.2232118  23.6677540
  21.2669510  37.5130681  22.3341506  21.6289496  37.1456446  22.9238776
  19.5701185  20.6748674  26.4940599  18.6994743  20.6487395  26.4473908
  19.8241527  20.5025866  25.6766444  19.4794745  20.6458817  26.3660735
  16.5419165  32.7316641  15.4313742  16.8311690  33.5081523  15.7057316
  16.6290964  32.2205372  16.1328241  16.5973421  32.7708559  15.5756240
  19.4379052  30.5797875  37.2265265  19.9078683  31.2039991  37.6133139
  19.4840932  29.9114850  37.7858480  19.5146928  30.5732555  37.3665337
  16.5950326  22.6854902  27.9514069  16.0788814  21.9935094  28.0765648
  16.0344255  23.3525679  27.8976668  16.4356839  22.6818160  27.9620135
  18.6642559  23.2247862  29.7806922  18.2774312  23.2496894  30.5620452
  18.1775496  22.6589541  29.3281438  18.5355068  23.1443613  29.8294825
  18.3299701  20.1114848  32.0717182  18.9592819  20.6475148  31.7938252
  18.4985564  20.0192207  32.9230747  18.4477495  20.1776210  32.1565710
  18.1313616  24.8986042  34.3443593  18.9587045  24.6271191  34.4002208
  18.1521462  25.6946884  34.7007411  18.2566466  24.9765797  34.4058776
  12.7083106  32.0449905  27.5313854  11.8671112  31.9453779  27.7392748
  12.9173114  32.8145386  27.8828174  12.6147798  32.1441949  27.6141169
  10.1858673  29.6669442  25.3598604   9.7915370  29.7412454  24.5848714
   9.6298789  30.0527389  25.9106966  10.0461485  29.7351217  25.3266264
  21.8223619  22.6450736  25.0402483  22.0273213  22.5773044  25.8859480
  21.4950043  23.4509557  24.9723661  21.8038867  22.7536677  25.1562138
  16.5199771  29.9731304  26.7811451  16.2162908  29.4187293  27.3821859
  15.8179191  30.1523514  26.2939485  16.3715980  29.9176087  26.7981157
  15.5765868  27.2831824  21.3456153  15.8525602  26.5650737  20.9333721
  16.1764537  27.8816744  21.1377259  15.7059132  27.2652195  21.2536914
  14.5818122  37.1881025  31.4883549  14.4738476  37.1983087  32.3545607
  14.7913903  38.0135806  31.2988503  14.5968233  37.3122100  31.5887641
  25.0757307  23.1982500  24.5205249  24.4631621  23.6852903  24.9058981
  25.1721482  22.5225991  25.0642900  24.9995205  23.1700809  24.6584107
  19.0776388  24.9545342  19.6202748  19.5320135  25.1255902  20.3450593
  19.5516434  24.3413452  19.2200524  19.2144708  24.8896227  19.6676510
  12.5991914  34.4393668  28.9505487  12.0079847  35.0803166  28.9208502
  13.3612937  34.8631285  28.9236786  12.6240174  34.5969506  28.9420634
  12.9952536  25.5995665  29.6173504  13.4554018  25.6734595  30.3548628
  13.0408643  26.3976919  29.2673326  13.0703092  25.7289812  29.6746261
  14.6435886  26.2662360  34.1845531  14.2521451  25.6195707  34.6201309
  14.8121749  26.8573795  34.8039787  14.6106796  26.2576628  34.3408237
  22.3581430  39.8902979  26.3837511  22.1601118  40.3793794  25.6893722
  21.7369141  40.0944221  26.9621644  22.2368994  39.9919517  26.3660734
  16.4189408  31.6587876  20.7247755  17.1631453  32.0462152  20.9630705
  16.5650104  30.8145301  20.8888243  16.5499993  31.5918349  20.7841725
  18.3368984  23.4538135  25.7579617  17.4905029  23.6260943  25.6320967
  18.3340116  22.6487479  26.0945445  18.2116133  23.3599164  25.7890744
  19.4067284  27.2313349  26.6241675  18.9327238  26.7055111  27.1346986
  19.7785420  26.6842822  26.0556536  19.3917173  27.0729346  26.6156822
   9.7840314  29.2284856  31.9925220  10.6465927  29.1280565  31.9062550
   9.4532097  28.6479565  31.4310793   9.8625510  29.1276483  31.8970626
  21.3350784  28.1249904  19.6867429  20.8073802  28.2078648  18.9973137
  21.7946492  28.8667775  19.6832073  21.3252634  28.2470566  19.5842124
  13.1442100  28.0527305  28.6535639  12.5195170  28.0645697  28.0461591
  12.8087695  28.5287480  29.3026879  13.0027592  28.1245822  28.6592207
  13.3283849  26.3952423  14.7108324  12.9796653  27.0472149  15.1739873
  12.8480295  26.3809537  13.9832195  13.2054093  26.4895477  14.6719415
   9.8567776  36.1127765  30.0939403   9.3267700  35.4220204  30.1434378
  10.1292869  36.1037950  29.2652112   9.8192498  36.0094897  29.9786819
  20.8887866  36.6953467  18.8177086  21.6122065  37.1611580  18.6741659
  20.4488457  36.7627077  18.0674683  20.9303558  36.7737304  18.6861867
  19.2970318  34.6255280  27.8022073  18.8697926  34.0004998  27.3687509
  19.2895263  34.3430202  28.6281080  19.2329460  34.4908060  27.8601901
  12.4132845  29.6620453  30.8710507  12.5726332  28.9063777  31.2762229
  12.2325739  30.2111392  31.5251245  12.4098204  29.6314267  31.0273213
  20.3553148  21.8281688  31.4261297  19.8593710  22.0245363  30.7352863
  21.1122210  22.2274357  31.2550098  20.3939973  21.9159422  31.2981433
  17.6256028  25.5024034  28.0164607  17.6498515  24.9684147  27.3277387
  17.8767502  24.9941343  28.6790198  17.6665947  25.3484938  28.0129252
   5.1363618  32.7855529  27.4507751   5.0307067  32.7402374  26.5859835
   4.3863838  33.1309310  27.7322036   5.0099221  32.8296437  27.3645081
  13.9057350  24.2294852  27.3970352  13.9455722  24.7304059  28.1105059
  13.0807015  24.3205246  27.1276275  13.7896876  24.3176669  27.4620890
  16.0886963  33.7955592  35.4990646  15.2382594  33.9327307  35.6348291
  16.2515091  33.0619371  35.9438348  15.9870827  33.7069694  35.5846245
  15.3271714  30.7455362  29.6944251  14.4963643  30.9129180  29.4879499
  15.2723231  30.3691313  30.4793136  15.1961129  30.7145094  29.7792779
  13.1355497  24.2364255  35.3300661  13.7608200  23.6926388  35.6030093
  12.6805977  23.7559173  34.7608452  13.1603758  24.0853737  35.2862255
  13.7007757  29.0210954  20.2234368  13.8410719  29.5183418  20.9263010
  14.1990290  28.3197248  20.3648582  13.7948838  28.9912933  20.3485947
  13.7307980  29.8878065  17.5526945  14.3653059  30.4838490  17.4876407
  13.8133591  29.5881522  18.3672815  13.8364531  29.9318973  17.6630032
  15.3086963  25.8192040  17.5272387  15.6302804  25.3395123  16.8731649
  15.5713906  26.6291686  17.3363199  15.3952988  25.8681938  17.4027879
  18.5383936  36.8410915  31.0471203  18.0309027  37.3946761  31.4911834
  18.2410582  36.9019205  30.2289978  18.4188820  36.9317226  30.9919660
  10.2360968  32.0845906  20.8216491  10.7453197  32.6810413  21.2027797
  10.7095240  31.8171879  20.1392911  10.3804343  32.1331721  20.7771014
  21.1491716  40.7574172  18.9775147  20.4321026  40.5835035  18.5122384
  21.7998453  40.5226745  18.4450633  21.1393566  40.6969965  18.8304365
  19.1440341  21.6779334  23.2986443  18.5008659  21.5276980  23.8671582
  18.8039748  21.4321679  22.5335548  18.9985418  21.6191457  23.2689458
  17.7826421  41.7735473  27.9528210  17.5592075  41.0154302  28.3212236
  17.2936264  41.8033494  27.2308650  17.6769870  41.6657697  27.9004951
  23.8967815  26.0894644  25.6306825  24.2495425  25.6624367  26.3052624
  23.0382616  26.0045488  25.7607901  23.8217259  26.0139385  25.7501835
  12.5951500  28.7202164  23.6889671  11.8763489  29.1366297  23.9562535
  12.9663862  29.2856403  23.1381310  12.5443431  28.8651446  23.6472478
  16.4304878  41.9935931  25.4065295  16.0165276  41.3310061  25.0169136
  17.1152252  42.1413790  24.8860989  16.4703249  41.9176589  25.2721792
  19.7970172  41.1526016  26.1588911  19.3986455  41.2628287  25.3909731
  19.1821391  41.3608083  26.7415471  19.6469061  41.1999584  26.1320211
  18.3698074  27.7600164  19.0263051  17.7762913  28.0817161  18.4747618
  18.4073352  26.9141260  18.8184157  18.2872463  27.6824492  18.9145822
  25.3291875  21.2113056  26.5591137  24.8222739  20.5042196  26.4912315
  26.1259308  20.8806245  26.6892214  25.3719114  21.0586208  26.5690132
  21.2455890  27.7179669  22.4564801  21.0169583  27.7412370  21.6143159
  21.5053967  26.8937136  22.5759812  21.2502078  27.5995749  22.3489999
  15.5275119  29.5714142  32.0589901  15.0154022  28.9635325  32.4174933
  15.3554615  30.2870734  32.5263877  15.4264756  29.5877441  32.1806125
  10.3740834  28.0151717  34.7092263  10.2043424  28.6753092  34.1640470
   9.9306783  28.2258278  35.4304752  10.2840167  28.1437699  34.7353893
  14.3000653  26.2556215  23.7518997  14.7758019  26.6173295  23.1169178
  13.7989253  26.9112682  24.0319140  14.2966012  26.4050404  23.6995738
  27.5312015  35.7277983  19.5432002  27.9145620  36.4769339  19.7730099
  26.7356128  35.9743803  19.2843991  27.4705797  35.8747677  19.5389575
  19.4044189  27.4938386  34.4992157  19.9615619  27.2652196  33.8670622
  19.0805254  28.2544052  34.2227369  19.4390599  27.5722223  34.3648654
   7.2742898  30.9198583  29.9680753   6.7269618  30.2499228  30.0861621
   8.0635276  30.5528430  30.0324220   7.3095082  30.7663569  29.9949454
  17.1227306  30.5806040  35.4644164  17.8738633  30.8957716  35.7783718
  17.3149883  30.3785210  34.6378086  17.2618721  30.5973421  35.3887560
  16.3427306  28.3997415  17.1192381  16.7226271  28.4177044  16.3343496
  15.6019902  28.8451404  16.9983228  16.2896144  28.4679189  16.9855949
  23.9712597  26.7079606  22.7067959  23.9706823  26.5528262  23.5652236
  23.7668777  27.5542593  22.6509345  23.9412374  26.8100227  22.8255899
   6.0329868  30.1319390  27.1226776   5.8551629  29.6795999  27.8481692
   5.7448890  30.9345552  27.3065254   5.9642821  30.1841948  27.2570279
  17.1412060  35.2374921  18.5101171  16.3323383  34.9141594  18.4634480
  17.6486969  34.5308143  18.4429419  17.0961727  35.0856237  18.4931465
   7.7702337  32.6647114  24.2348535   6.9047857  32.6532805  24.1231306
   7.8701153  32.4777337  25.0819674   7.6576504  32.6353175  24.3437480
  13.3959347  42.4345013  27.8078641  13.7105906  43.2481401  27.8156422
  13.8052761  42.0495231  28.4760800  13.5027445  42.4973715  27.9082732
  20.3483867  37.8515059  25.3782453  20.8195045  38.5655322  25.5472438
  20.6844046  37.2513810  25.9142322  20.4678982  37.8686524  25.4814829
  17.2653362  22.6242530  32.3340547  17.3981268  21.8273523  32.6621523
  17.6498515  23.1508933  32.9138823  17.3409691  22.5842447  32.4684050
  20.3385717  19.5472856  28.9321641  19.5331681  19.4370586  29.2489479
  20.2092453  19.6485312  28.0751506  20.2005850  19.5456526  28.8529681
  16.3346477  24.6258943  19.8020012  17.1562171  24.7957256  19.5601707
  15.8716128  24.7806204  19.0786310  16.3877639  24.6740676  19.6591657
  14.9241809  22.6201705  30.5818441  15.4686222  22.2792832  31.1722783
  14.9778744  23.4787167  30.7239726  15.0130928  22.6956964  30.6900315
  10.7372367  36.3818121  27.4557249  11.3417225  36.3413955  26.8271070
  10.5299680  37.2289273  27.4861305  10.7961265  36.5006124  27.3673366
   5.9723650  35.3652739  27.3256172   5.8747928  34.5549010  27.6346229
   6.7552519  35.3444532  26.9402440   6.0739786  35.2419829  27.3143035
  37.0229790  46.3048918  21.6362363  36.9923794  47.1593555  21.8080632
  37.6211139  46.0044211  22.1948506  37.1066948  46.3865415  21.7437165
  30.2229475  45.3924569  26.3915293  29.3667370  45.5533067  26.4424410
  30.2697129  44.5216633  26.4120354  30.1028586  45.2875371  26.4021359
  24.6070615  54.9287287  22.1552525  23.8553514  54.5502825  21.9268570
  25.0556626  54.9605721  21.4071335  24.5620281  54.8772894  22.0110027
  30.0595574  55.3512656  17.5838072  29.7246943  56.0289578  17.1482294
  30.5722445  54.9617968  16.9954944  30.0861156  55.3937235  17.4324863
  29.5999866  57.3026925  23.5249183  29.9839245  57.8713824  22.9853959
  29.5359007  56.5776435  23.0455000  29.6473293  57.2802388  23.3743046
  33.0681296  47.4516613  29.0346945  33.6137256  48.1301700  29.0940915
  33.0098172  47.3104074  28.1748526  33.1397210  47.5308615  28.9159005
  26.1855371  54.9405679  24.4215297  26.2865734  54.1306033  24.7312425
  25.5897116  54.8462625  23.7914976  26.1127909  54.8070707  24.3741536
  34.8446365  48.8801220  19.9080673  34.7285890  49.6308906  20.3372811
  35.6402251  48.6225173  20.1576760  34.9450954  48.9536067  20.0084764
  26.0256110  59.8583268  25.8230153  26.6693566  60.2996432  26.2126312
  26.3512366  59.0536694  25.7360412  26.1687939  59.8048463  25.8675631
  19.3820415  50.9625966  24.0467631  19.1470599  50.1293618  23.9399900
  19.5206056  51.2430631  23.2328832  19.3676077  50.8809469  23.9109986
  21.6810502  43.1311696  26.9451939  21.0615534  42.5404343  26.7761953
  21.5794366  43.7223131  26.3116262  21.5748178  43.1315779  26.8256928
  26.7276690  52.8695243  21.1950015  27.0492531  53.4100450  20.5911323
  27.3748787  52.2992014  21.3272305  26.8702745  52.8654418  21.1257050
  28.7778398  44.8711238  21.2784402  29.4758563  45.0499366  21.7705865
  29.0930731  44.3481577  20.6554791  28.9273735  44.8205010  21.2586412
  21.4079635  46.6763978  29.1895508  21.2838332  47.2626423  29.8245326
  22.0597920  46.1824174  29.4907783  21.4853285  46.6902782  29.3281437
  28.9666333  51.2581683  21.2664193  29.4059969  50.6498784  21.7118966
  28.8170996  50.8789056  20.4949658  29.0087799  51.1120154  21.2183361
  26.4337976  49.8525695  28.4683019  27.0786979  49.3598138  28.1493967
  26.6739754  49.9950481  29.2949097  26.5648562  49.8003137  28.5432552
  28.9724068  52.6980601  28.1189911  29.2547311  51.9032006  27.8976667
  29.7010228  53.1761188  28.1394972  29.1213632  52.6515198  28.0892926
  26.9505262  40.2403635  25.3605676  26.6208592  40.6914778  24.6909375
  26.2750263  40.1619798  25.9078683  26.8015698  40.2954770  25.3428900
  32.5675670  49.6108864  18.2194962  32.4826965  50.4669831  18.3644531
  33.0560053  49.3353188  18.8877122  32.6264567  49.6966186  18.3397044
  33.4994103  46.2293659  19.7192698  32.9705575  46.4453292  20.3790004
  34.0219123  46.9229797  19.6393667  33.4982556  46.3636795  19.8048297
  25.3893711  50.1256875  18.5200166  24.8050926  50.6306907  18.9266029
  24.9863806  49.8999262  17.7796758  25.2433015  50.1665124  18.4705191
  20.9437740  55.8411636  25.3223837  20.4605318  56.5662126  25.2983421
  21.7561058  56.1387766  25.4333995  20.9928487  55.9913990  25.3351116
  27.0151894  54.6343817  27.9273652  26.4978835  54.2751232  27.3234960
  27.7126285  54.1105992  27.9379718  27.0417475  54.5041505  27.8403910
  29.8470925  46.3722527  16.9969086  30.0866929  46.5800511  16.1844429
  30.1686766  45.5680036  17.1058031  29.9308083  46.2836629  16.8929639
  25.1561216  38.3015923  20.8428624  25.9107184  38.6694240  20.6045674
  24.9788750  38.6755477  21.6107804  25.2415694  38.4114111  20.9213513
  23.7981937  56.3567812  25.4744117  24.5002516  55.8419801  25.5316873
  23.7179420  56.6841964  26.2790992  23.8905697  56.3282039  25.6016909
  23.5118280  40.7086242  17.5406737  23.3293854  40.9258123  16.7147730
  24.3743893  40.8225255  17.5965352  23.6122870  40.7576140  17.4261224
  23.1232712  52.5474164  24.9829725  23.9621612  52.7797097  25.0303487
  23.1544482  51.6778476  24.9136760  23.2514430  52.4531111  24.9794370
  23.7485415  52.9675039  29.2843030  24.2883640  52.8246171  29.9546403
  23.0655362  53.3671790  29.6527057  23.7277569  53.0054710  29.4377452
  29.1918000  37.7112653  20.5755761  29.9204160  37.5328608  20.1293917
  29.2812892  38.5530733  20.7862939  29.3124662  37.8096531  20.5409279
  19.1522560  49.1875330  29.4377452  18.8860976  48.3714447  29.5968442
  19.1661125  49.2328486  28.5672968  19.1147283  49.0732235  29.3330934
  23.0580307  43.9860415  16.0529210  22.3438485  43.6998594  16.4651643
  23.5424276  44.3257041  16.6935598  23.0239671  43.9942064  16.2084845
  30.2327625  52.4890369  16.4291018  30.6478774  52.1575392  15.7375514
  29.4019555  52.2559271  16.3011155  30.1715634  52.4061625  16.3081866
  19.5615974  49.9734110  26.7189196  19.3791547  49.9480996  25.8661488
  20.2965643  50.4433048  26.7578105  19.6430038  50.0395472  26.5987115
  22.6261726  46.6919113  33.2271305  23.3501698  46.6772143  33.7136200
  22.7277862  47.4014468  32.7293273  22.7479935  46.7943816  33.2250092
  32.6737994  46.8952188  22.3815268  32.7684849  47.6341482  22.8354893
  32.0496838  46.4669664  22.8149832  32.5947024  46.9413509  22.5123415
  19.5286884  46.8527610  26.8688263  20.1060387  46.7164061  27.5080508
  18.8300946  46.3963395  27.1233847  19.5107906  46.7649877  27.0010553
  32.9261015  48.7400928  15.6152220  32.8441178  48.8103115  16.4807207
  33.5640736  49.3030672  15.4235960  33.0080853  48.8339899  15.7142169
  26.2854187  48.5061666  25.0826746  26.0273431  47.6733401  25.0558046
  26.3402669  48.7319279  24.2419246  26.2553964  48.4159437  24.9546883
  31.3655237  40.6090117  25.1830839  30.6611563  40.1199302  25.3414758
  31.4140211  40.6212591  24.3119283  31.2685288  40.5379765  25.0770179
  25.2588899  46.0599428  25.5691641  24.6838490  46.2191597  26.2055602
  24.8824575  45.4234838  25.1060091  25.1191711  45.9897241  25.5946199
  28.9262187  44.5322778  30.4284019  28.5376620  44.1076996  29.7736210
  28.2616886  44.7804927  30.9361046  28.7709115  44.5061499  30.4071887
  38.5685457  44.2897782  23.2031849  38.3122021  43.4777724  23.0129732
  39.4114771  44.2975350  22.9762037  38.6551482  44.1709780  23.1416666
  15.0045718  45.7039503  23.5836081  15.0905969  45.3271372  24.3649611
  15.6321515  45.3299949  23.1056040  15.1102269  45.5924985  23.6281559
  32.7488549  38.2297407  27.9408003  33.1299061  37.5475578  28.3275878
  31.9451833  37.9407009  27.7583668  32.6865011  38.0864455  27.9712059
  30.0301126  48.7621382  18.6260826  30.8441764  49.0536275  18.5143598
  29.9660267  48.1081245  18.0519119  30.1403865  48.7086577  18.5249664
  25.9009034  52.2342900  23.7533138  26.5382981  51.9954647  24.2984932
  26.3264106  52.4380059  23.0186299  26.0585200  52.2293910  23.7250296
  20.5921676  54.4731236  27.6367442  20.6325822  54.7446087  26.8087222
  21.1516200  54.9973144  28.0525230  20.6805022  54.5906991  27.5759330
  26.5411849  47.4545190  18.0908028  26.9257002  47.2352896  18.8424573
  26.2923469  48.2808135  18.2209104  26.5613922  47.5443336  18.2209104
  28.2830506  52.7115322  25.4326925  28.3569514  52.5490494  26.2868775
  29.1000012  52.9005512  25.1887406  28.4146865  52.7152065  25.5224950
  22.0436263  53.0573185  22.4621368  21.2174380  53.3034922  22.3355647
  22.1048254  52.9785266  23.3283426  21.9310430  53.0818134  22.5710313
  24.2612286  39.1242126  23.4216808  23.3934712  39.1964726  23.4874417
  24.5487491  39.9264205  23.6104783  24.1752034  39.2536273  23.4591575
  26.8235092  55.6750066  20.1640398  27.1133390  55.2839047  19.4399625
  27.5538572  55.8566770  20.6045673  26.9741976  55.6443879  20.1223205
  24.7641007  57.6517448  23.2300548  24.5441303  57.3614803  24.0227215
  24.5435529  56.9932403  22.7018460  24.6988601  57.5117156  23.2689456
  23.6757954  49.7390764  25.4956249  23.3871203  49.1128236  26.0301977
  24.5441302  49.6811052  25.5620930  23.7618206  49.6378309  25.5847204
  26.9308963  59.0246838  22.0131240  27.5833021  58.4923280  22.2422266
  26.2334572  58.6715490  22.3999114  26.9239681  58.8936361  22.1043408
  23.8790228  51.3786015  21.4198614  24.6336196  51.7599055  21.6334077
  23.2860840  51.8297159  21.8745311  23.9026941  51.5014843  21.5181493
  34.9248881  51.3451252  21.3562219  35.4906914  52.0044462  21.2720762
  34.2776785  51.6900950  21.8278622  34.9127638  51.4933193  21.4134976
  25.1988454  52.5494577  26.7938730  24.6769208  52.6894869  27.4790594
  25.5862475  51.7905241  26.9840847  25.1792155  52.4580101  26.9239806
  22.1879638  42.6000386  20.8633684  21.9004434  42.2301656  20.1265632
  22.8750107  43.0695241  20.6017389  22.2468536  42.6147355  20.7148760
  31.3955459  54.2890036  20.7799299  31.1542135  53.5557897  20.3726364
  31.5756792  54.8376893  20.1265632  31.3863083  54.2612427  20.6229522
  26.6254780  49.5798596  22.1920221  26.4297563  50.1873330  21.5980524
  26.8489126  48.8866540  21.7111895  26.6289421  49.5676121  22.0336302
  25.0233310  46.4653334  22.3101089  25.7455962  46.6294492  21.8504895
  24.5441303  47.1862999  22.2040429  25.0597041  46.5951563  22.2266703
  32.9826818  42.8017133  27.6897774  32.1437918  42.8278411  27.4536037
  33.0531185  43.4487868  28.2703121  32.8695211  42.9013258  27.7406891
  22.6740927  48.8711406  31.4155229  23.1862024  49.1495659  30.7663989
  22.3877269  49.6100700  31.7818042  22.7075790  49.0213760  31.3745107
  31.4296096  39.7002510  22.4225390  32.1322449  39.5010258  21.9445348
  31.1640285  38.9278452  22.7294234  31.4942728  39.5565476  22.3970832
  19.7607833  43.3781598  21.7118966  19.8623969  44.1807759  22.0399941
  20.5563720  43.1768934  21.4142046  19.8935739  43.4667497  21.7154321
  30.7310157  45.3295866  23.5984575  30.4844872  45.2491617  24.4321364
  31.0595281  44.5449334  23.4047103  30.7431401  45.2022132  23.6932098
  34.6258206  52.0379226  27.3871357  34.4872566  52.7360272  27.8920099
  33.8458204  51.8827882  27.0307538  34.4901433  52.1179392  27.4097631
  25.7634940  56.2555357  29.8768585  25.9124503  55.6958273  29.2241990
  26.5434942  56.3347359  30.2601104  25.9009033  56.1840922  29.8365534
  36.1211579  51.3957480  18.1487856  35.7418388  50.6094617  18.1417145
  35.4577825  51.9444337  18.0059500  35.9670054  51.3602304  18.1268653
  28.2888240  56.4270000  31.1553076  28.2131911  55.7578810  31.7103864
  28.2178100  57.1287788  31.6693742  28.2668847  56.4314907  31.3129924
  28.9458487  54.9470999  21.9876682  29.7108378  54.6780642  21.6659346
  28.8436577  54.4621009  22.7046745  29.0439983  54.8360563  22.0456510
  26.9811257  43.1495408  28.5269918  26.1907332  42.9686868  28.8487254
  27.3771880  42.3722361  28.5100212  26.9228133  43.0082869  28.5722466
  31.4677148  51.9783182  13.9676631  32.2350133  52.0383307  13.5582483
  31.0208457  51.4063624  13.4832950  31.5150575  51.9019758  13.8354342
  32.3654943  50.7837838  26.2529364  31.6899945  50.5523070  26.7542751
  32.3747319  50.1759021  25.6271469  32.2673448  50.6596763  26.2345516
  34.3671678  53.6402971  18.4839542  34.4491515  54.4469957  18.1600993
  34.8521420  53.6598930  19.2080315  34.4508836  53.7623633  18.5426440
  28.1768181  48.3187807  27.1509620  27.7530430  48.5192306  26.4148638
  28.0013036  47.4716654  27.2633919  28.0879062  48.2236588  27.0583310
  27.6779875  59.8338319  29.6131077  28.1675805  59.1349109  29.4306742
  27.1064107  59.5362189  30.2007134  27.6664405  59.6864543  29.6732118
  23.4650626  48.8139858  22.5837592  23.6215245  48.7486661  23.4393584
  23.8051219  49.5888411  22.3716272  23.5383861  48.9189056  22.6792186
  30.0029771  48.1897742  21.4530955  30.5445316  47.6868123  21.9169576
  30.3176330  48.1362936  20.6420441  30.1294168  48.1077162  21.4014767
  28.1716221  53.5815093  18.7370983  28.2409041  52.7229632  18.8763984
  28.9504676  53.7986974  18.4090008  28.2969071  53.4867957  18.7088141
  32.5623708  56.0052794  22.9507477  32.1703500  55.7019510  22.2330343
  32.7176780  56.8421884  22.7612431  32.5277298  56.0836631  22.8163974
  20.0384888  45.9974808  22.8998359  20.4183853  46.4159353  22.2358627
  19.4640252  46.5788264  23.2067203  20.0096213  46.1452667  22.8475100
  32.7263383  52.5702783  22.8913507  32.3678038  52.7417426  23.6677540
  32.2402094  53.0315989  22.3341506  32.6022080  52.6641754  22.9238776
  27.5151748  48.2501949  15.4313742  27.8044273  49.0266831  15.7057316
  27.6023547  47.7390680  16.1328241  27.5706005  48.2893867  15.5756240
  23.6815689  47.5635213  27.5313854  22.8403696  47.4639087  27.7392748
  23.8905697  48.3330693  27.8828174  23.5880382  47.6627257  27.6141169
  21.1591256  45.1854750  25.3598604  20.7647954  45.2597762  24.5848714
  20.6031373  45.5712696  25.9106966  21.0194069  45.2536525  25.3266264
  27.4932354  45.4916612  26.7811451  27.1895492  44.9372601  27.3821859
  26.7911775  45.6708822  26.2939485  27.3448564  45.4361395  26.7981157
  26.5498451  42.8017132  21.3456153  26.8258186  42.0836045  20.9333721
  27.1497121  43.4002052  21.1377259  26.6791716  42.7837503  21.2536914
  25.5550705  52.7066333  31.4883549  25.4471060  52.7168395  32.3545607
  25.7646487  53.5321113  31.2988503  25.5700816  52.8307408  31.5887641
  36.0489891  38.7167808  24.5205249  35.4364204  39.2038211  24.9058981
  36.1454066  38.0411299  25.0642900  35.9727788  38.6886117  24.6584107
  30.0508972  40.4730650  19.6202748  30.5052718  40.6441210  20.3450593
  30.5249017  39.8598760  19.2200524  30.1877292  40.4081535  19.6676510
  23.5724497  49.9578975  28.9505487  22.9812430  50.5988474  28.9208502
  24.3345521  50.3816593  28.9236786  23.5972758  50.1154814  28.9420634
  27.3921992  47.1773184  20.7247755  28.1364037  47.5647460  20.9630705
  27.5382688  46.3330609  20.8888243  27.5232577  47.1103657  20.7841725
  30.3799868  42.7498657  26.6241675  29.9059822  42.2240419  27.1346986
  30.7518003  42.2028130  26.0556536  30.3649756  42.5914654  26.6156822
  32.3083367  43.6435212  19.6867429  31.7806386  43.7263956  18.9973137
  32.7679075  44.3853083  19.6832073  32.2985218  43.7655874  19.5842124
  24.1174684  43.5712613  28.6535639  23.4927754  43.5831005  28.0461591
  23.7820279  44.0472788  29.3026879  23.9760176  43.6431130  28.6592207
  24.3016432  41.9137731  14.7108324  23.9529237  42.5657457  15.1739873
  23.8212878  41.8994844  13.9832195  24.1786676  42.0080785  14.6719415
  20.8300359  51.6313073  30.0939403  20.3000284  50.9405512  30.1434378
  21.1025453  51.6223258  29.2652112  20.7925082  51.5280205  29.9786819
  31.8620450  52.2138775  18.8177086  32.5854649  52.6796888  18.6741659
  31.4221041  52.2812385  18.0674683  31.9036142  52.2922612  18.6861867
  31.0306605  49.0736318  30.0677775  30.4163598  48.5294368  30.3626410
  31.5473890  48.5600554  29.5883591  31.0162267  48.9172727  30.0402003
  30.2702902  50.1440588  27.8022073  29.8430510  49.5190306  27.3687509
  30.2627846  49.8615510  28.6281080  30.2062043  50.0093368  27.8601901
  23.3865429  45.1805761  30.8710507  23.5458916  44.4249085  31.2762229
  23.2058323  45.7296700  31.5251245  23.3830788  45.1499574  31.0273213
  28.5988612  41.0209342  28.0164607  28.6231099  40.4869454  27.3277387
  28.8500085  40.5126651  28.6790198  28.6398530  40.8670246  28.0129252
  16.1096201  48.3040837  27.4507751  16.0039651  48.2587681  26.5859835
  15.3596421  48.6494618  27.7322036  15.9831804  48.3481745  27.3645081
  24.8789934  39.7480160  27.3970352  24.9188305  40.2489367  28.1105059
  24.0539599  39.8390554  27.1276275  24.7629460  39.8361977  27.4620890
  26.3004297  46.2640670  29.6944251  25.4696227  46.4314488  29.4879499
  26.2455814  45.8876621  30.4793136  26.1693712  46.2330402  29.7792779
  24.6740341  44.5396262  20.2234368  24.8143302  45.0368726  20.9263010
  25.1722874  43.8382556  20.3648582  24.7681422  44.5098241  20.3485947
  24.7040563  45.4063373  17.5526945  25.3385643  46.0023798  17.4876407
  24.7866174  45.1066830  18.3672815  24.8097114  45.4504281  17.6630032
  26.2819546  41.3377348  17.5272387  26.6035387  40.8580431  16.8731649
  26.5446490  42.1476994  17.3363199  26.3685572  41.3867246  17.4027879
  21.2093551  47.6031214  20.8216491  21.7185781  48.1995721  21.2027797
  21.6827824  47.3357187  20.1392911  21.3536927  47.6517029  20.7771014
  32.1224299  56.2759480  18.9775147  31.4053609  56.1020343  18.5122384
  32.7731037  56.0412053  18.4450633  32.1126150  56.2155273  18.8304365
  34.7072271  45.1524069  22.7216452  34.0363460  45.6953771  22.5929517
  35.4012021  45.6218924  22.4798147  34.7101138  45.3022340  22.6671979
  28.7559004  57.2920781  27.9528210  28.5324659  56.5339610  28.3212236
  28.2668848  57.3218802  27.2308650  28.6502453  57.1843005  27.9004951
  34.8700398  41.6079952  25.6306825  35.2228008  41.1809675  26.3052624
  34.0115200  41.5230796  25.7607901  34.7949843  41.5324693  25.7501835
  23.5684083  44.2387472  23.6889671  22.8496072  44.6551605  23.9562535
  23.9396445  44.8041711  23.1381310  23.5176015  44.3836754  23.6472478
  27.4037461  57.5121239  25.4065295  26.9897860  56.8495369  25.0169136
  28.0884836  57.6599098  24.8860989  27.4435833  57.4361897  25.2721792
  30.7702755  56.6711324  26.1588911  30.3719039  56.7813595  25.3909731
  30.1553975  56.8793391  26.7415471  30.6201645  56.7184892  26.1320211
  29.3430657  43.2785472  19.0263051  28.7495497  43.6002469  18.4747618
  29.3805935  42.4326567  18.8184157  29.2605047  43.2009800  18.9145822
  32.2188474  43.2364977  22.4564801  31.9902167  43.2597678  21.6143159
  32.4786550  42.4122444  22.5759812  32.2234662  43.1181056  22.3489999
  25.2733237  41.7741523  23.7518997  25.7490603  42.1358603  23.1169178
  24.7721836  42.4297990  24.0319140  25.2698596  41.9235712  23.6995738
  18.2475482  46.4383890  29.9680753  17.7002201  45.7684536  30.0861621
  19.0367860  46.0713738  30.0324220  18.2827665  46.2848877  29.9949454
  27.3159890  43.9182723  17.1192381  27.6958855  43.9362352  16.3343496
  26.5752486  44.3636711  16.9983228  27.2628727  43.9864497  16.9855949
  34.9445180  42.2264914  22.7067959  34.9439407  42.0713570  23.5652236
  34.7401360  43.0727901  22.6509345  34.9144958  42.3285535  22.8255899
  17.0062451  45.6504698  27.1226776  16.8284212  45.1981307  27.8481692
  16.7181473  46.4530860  27.3065254  16.9375404  45.7027256  27.2570279
  28.1144644  50.7560229  18.5101171  27.3055967  50.4326902  18.4634480
  28.6219553  50.0493451  18.4429419  28.0694311  50.6041545  18.4931465
  18.7434921  48.1832422  24.2348535  17.8780441  48.1718112  24.1231306
  18.8433737  47.9962645  25.0819674  18.6309088  48.1538483  24.3437480
  24.3691931  57.9530321  27.8078641  24.6838490  58.7666709  27.8156422
  24.7785344  57.5680539  28.4760800  24.4760029  58.0159023  27.9082732
  31.3216451  53.3700367  25.3782453  31.7927629  54.0840630  25.5472438
  31.6576629  52.7699118  25.9142322  31.4411566  53.3871832  25.4814829
  27.3079060  40.1444251  19.8020012  28.1294755  40.3142564  19.5601707
  26.8448711  40.2991512  19.0786310  27.3610223  40.1925984  19.6591657
  21.7104951  51.9003429  27.4557249  22.3149808  51.8599263  26.8271070
  21.5032264  52.7474581  27.4861305  21.7693848  52.0191432  27.3673366
  16.9456233  50.8838047  27.3256172  16.8480511  50.0734318  27.6346229
  17.7285103  50.8629840  26.9402440  17.0472370  50.7605137  27.3143035
  35.5803198  70.4472595  22.1552525  34.8286098  70.0688133  21.9268570
  36.0289210  70.4791028  21.4071335  35.5352865  70.3958202  22.0110027
  44.5055775  67.1796403  35.9975749  45.2122542  66.6848433  36.1262684
  44.6943710  67.6205484  35.2678407  44.6383681  67.1714753  35.9084795
  41.0328158  70.8697964  17.5838072  40.6979526  71.5474886  17.1482294
  41.5455028  70.4803276  16.9954944  41.0593739  70.9122543  17.4324863
  40.5732449  72.8212233  23.5249183  40.9571829  73.3899132  22.9853959
  40.5091591  72.0961743  23.0455000  40.6205877  72.7987696  23.3743046
  44.0413879  62.9701921  29.0346945  44.5869839  63.6487007  29.0940915
  43.9830756  62.8289382  28.1748526  44.1129794  63.0493923  28.9159005
  37.1587954  70.4590987  24.4215297  37.2598317  69.6491341  24.7312425
  36.5629700  70.3647933  23.7914976  37.0860493  70.3256015  24.3741536
  45.8178948  64.3986528  19.9080673  45.7018474  65.1494214  20.3372811
  46.6134835  64.1410481  20.1576760  45.9183538  64.4721375  20.0084764
  36.9988694  75.3768576  25.8230153  37.6426149  75.8181740  26.2126312
  37.3244949  74.5722002  25.7360412  37.1420523  75.3233771  25.8675631
  30.3552999  66.4811274  24.0467631  30.1203183  65.6478926  23.9399900
  30.4938639  66.7615939  23.2328832  30.3408661  66.3994777  23.9109986
  37.7009274  68.3880551  21.1950015  38.0225115  68.9285758  20.5911323
  38.3481370  67.8177322  21.3272305  37.8435329  68.3839726  21.1257050
  39.7510982  60.3896546  21.2784402  40.4491146  60.5684673  21.7705865
  40.0663314  59.8666885  20.6554791  39.9006319  60.3390318  21.2586412
  39.9398917  66.7766991  21.2664193  40.3792553  66.1684091  21.7118966
  39.7903580  66.3974364  20.4949658  39.9820383  66.6305462  21.2183361
  39.9456651  68.2165909  28.1189911  40.2279894  67.4217314  27.8976667
  40.6742812  68.6946496  28.1394972  40.0946215  68.1700506  28.0892926
  43.5408254  65.1294172  18.2194962  43.4559549  65.9855139  18.3644531
  44.0292637  64.8538496  18.8877122  43.5997151  65.2151494  18.3397044
  44.4726687  61.7478966  19.7192698  43.9438158  61.9638600  20.3790004
  44.9951707  62.4415105  19.6393667  44.4715140  61.8822103  19.8048297
  49.9274740  67.3225271  25.0925742  49.0972443  67.5335915  25.2559159
  49.8783992  66.4962325  24.8168026  49.7981475  67.2314877  25.0763107
  36.3626295  65.6442183  18.5200166  35.7783510  66.1492215  18.9266029
  35.9596390  65.4184570  17.7796758  36.2165598  65.6850431  18.4705191
  31.9170323  71.3596944  25.3223837  31.4337902  72.0847434  25.2983421
  32.7293642  71.6573074  25.4333995  31.9661071  71.5099298  25.3351116
  37.9884477  70.1529125  27.9273652  37.4711419  69.7936540  27.3234960
  38.6858869  69.6291299  27.9379718  38.0150058  70.0226813  27.8403910
  41.6448069  70.6023939  33.8889825  41.7331415  70.4150080  34.7368035
  42.0737782  69.9561369  33.4894671  41.7210172  70.4786947  33.9561576
  39.2118529  69.8855099  32.8707487  38.6489364  69.4727709  33.3947148
  39.9739553  69.8108005  33.2900630  39.2412978  69.8132500  33.0100487
  40.8203509  61.8907835  16.9969086  41.0599513  62.0985819  16.1844429
  41.1419350  61.0865344  17.1058031  40.9040667  61.8021936  16.8929639
  36.1293799  53.8201231  20.8428624  36.8839767  54.1879548  20.6045674
  35.9521334  54.1940785  21.6107804  36.2148278  53.9299419  20.9213513
  34.7714521  71.8753120  25.4744117  35.4735100  71.3605109  25.5316873
  34.6912004  72.2027272  26.2790992  34.8638281  71.8467346  25.6016909
  34.4850864  56.2271550  17.5406737  34.3026437  56.4443431  16.7147730
  35.3476477  56.3410563  17.5965352  34.5855453  56.2761448  17.4261224
  34.0965296  68.0659472  24.9829725  34.9354195  68.2982405  25.0303487
  34.1277065  67.1963784  24.9136760  34.2247014  67.9716419  24.9794370
  34.7217999  68.4860347  29.2843030  35.2616224  68.3431478  29.9546403
  34.0387945  68.8857098  29.6527057  34.7010153  68.5240018  29.4377452
  44.1458884  64.1651348  24.4788055  44.9016399  64.5982862  24.5176964
  44.2521208  63.5156118  25.0522691  44.2729054  64.1328832  24.5686080
  47.1839055  67.9924625  25.2290458  46.7474287  67.9961368  25.9849429
  46.8501970  68.6730124  24.7970035  47.0701675  68.0937081  25.2771290
  41.7568129  70.0332958  36.5533608  42.5408545  70.1463806  36.9189350
  41.5564723  69.2074095  36.7492294  41.8434154  69.9279678  36.6367994
  34.0312891  59.5045723  16.0529210  33.3171068  59.2183902  16.4651643
  34.5156860  59.8442348  16.6935598  33.9972254  59.5127372  16.2084845
  41.9138522  71.9443060  30.2000064  41.1153768  71.7042560  30.4573932
  42.3624533  71.9957453  30.9467111  41.8613133  71.9165451  30.3484988
  41.2060209  68.0075677  16.4291018  41.6211357  67.6760700  15.7375514
  40.3752139  67.7744579  16.3011155  41.1448218  67.9246933  16.3081866
  30.5348558  65.4919418  26.7189196  30.3524131  65.4666304  25.8661488
  31.2698227  65.9618355  26.7578105  30.6162622  65.5580780  26.5987115
  46.6048232  65.7270928  23.8622084  46.8403821  65.8716126  23.0348934
  46.7537796  66.4913336  24.2553597  46.6614035  65.8609982  23.7985688
  48.4338689  64.5672594  21.6991688  48.7646906  65.1000234  21.0931783
  49.0071777  64.6211481  22.3553639  48.5672368  64.6542162  21.7069469
  40.9739259  65.6903505  38.0920252  40.1812240  66.0047017  38.2772872
  41.0888186  65.9054974  37.2541037  40.8734669  65.7687342  37.9958587
  43.6470578  62.4137496  22.3815268  43.7417432  63.1526790  22.8354893
  43.0229421  61.9854972  22.8149832  43.5679608  62.4598817  22.5123415
  41.9023052  65.5923709  33.0305549  42.4761913  64.9550953  33.1854113
  41.8237855  65.5927791  32.1615206  41.9756286  65.4988820  32.9251960
  43.8993599  64.2586236  15.6152220  43.8173762  64.3288423  16.4807207
  44.5373320  64.8215980  15.4235960  43.9813436  64.3525207  15.7142169
  37.2586770  64.0246974  25.0826746  37.0006014  63.1918709  25.0558046
  37.3135253  64.2504587  24.2419246  37.2286548  63.9344745  24.9546883
  36.2321482  61.5784736  25.5691641  35.6571074  61.7376905  26.2055602
  35.8557159  60.9420146  25.1060091  36.0924295  61.5082549  25.5946199
  25.9778301  61.2224811  23.5836081  26.0638553  60.8456680  24.3649611
  26.6054099  60.8485257  23.1056040  26.0834852  61.1110293  23.6281559
  41.0033709  64.2806690  18.6260826  41.8174348  64.5721583  18.5143598
  40.9392851  63.6266553  18.0519119  41.1136448  64.2271885  18.5249664
  47.2243199  66.9632686  33.0390402  46.9881837  66.1320751  32.9202463
  47.8686428  66.9118294  33.6245246  47.2837870  66.8330374  33.1076295
  36.8741618  67.7528208  23.7533138  37.5115564  67.5139955  24.2984932
  37.2996689  67.9565367  23.0186299  37.0317784  67.7479218  23.7250296
  31.5654260  69.9916544  27.6367442  31.6058405  70.2631395  26.8087222
  32.1248784  70.5158452  28.0525230  31.6537606  70.1092299  27.5759330
  37.5144433  62.9730498  18.0908028  37.8989585  62.7538204  18.8424573
  37.2656053  63.7993443  18.2209104  37.5346505  63.0628644  18.2209104
  39.2563089  68.2300630  25.4326925  39.3302098  68.0675802  26.2868775
  40.0732596  68.4190820  25.1887406  39.3879448  68.2337373  25.5224950
  33.0168846  68.5758493  22.4621368  32.1906964  68.8220230  22.3355647
  33.0780837  68.4970574  23.3283426  32.9043013  68.6003442  22.5710313
  37.7967675  71.1935373  20.1640398  38.0865974  70.8024355  19.4399625
  38.5271156  71.3752078  20.6045673  37.9474559  71.1629187  20.1223205
  38.3862420  65.9953119  31.2493528  37.8874114  66.7068887  31.3278417
  39.1962645  66.3153786  31.2111691  38.4318527  66.1479968  31.2550097
  35.7373591  73.1702756  23.2300548  35.5173886  72.8800111  24.0227215
  35.5168113  72.5117711  22.7018460  35.6721185  73.0302464  23.2689456
  34.6490538  65.2576072  25.4956249  34.3603787  64.6313544  26.0301977
  35.5173886  65.1996360  25.5620930  34.7350790  65.1563617  25.5847204
  37.9041546  74.5432146  22.0131240  38.5565605  74.0108588  22.2422266
  37.2067155  74.1900798  22.3999114  37.8972264  74.4121669  22.1043408
  34.8522811  66.8971323  21.4198614  35.6068779  67.2784362  21.6334077
  34.2593424  67.3482467  21.8745311  34.8759525  67.0200151  21.5181493
  45.8981465  66.8636560  21.3562219  46.4639497  67.5229770  21.2720762
  45.2509368  67.2086258  21.8278622  45.8860221  67.0118501  21.4134976
  36.1721038  68.0679885  26.7938730  35.6501791  68.2080176  27.4790594
  36.5595058  67.3090549  26.9840847  36.1524739  67.9765409  26.9239806
  33.1612222  58.1185693  20.8633684  32.8737018  57.7486964  20.1265632
  33.8482690  58.5880549  20.6017389  33.2201119  58.1332663  20.7148760
  42.3688043  69.8075344  20.7799299  42.1274719  69.0743205  20.3726364
  42.5489376  70.3562201  20.1265632  42.3595667  69.7797735  20.6229522
  35.9965894  61.9838642  22.3101089  36.7188545  62.1479800  21.8504895
  35.5173886  62.7048307  22.2040429  36.0329624  62.1136871  22.2266703
  30.7340417  58.8966906  21.7118966  30.8356553  59.6993067  22.0399941
  31.5296303  58.6954242  21.4142046  30.8668322  58.9852805  21.7154321
  41.7042741  60.8481174  23.5984575  41.4577455  60.7676925  24.4321364
  42.0327864  60.0634642  23.4047103  41.7163985  60.7207440  23.6932098
  45.5990790  67.5564534  27.3871357  45.4605149  68.2545580  27.8920099
  44.8190788  67.4013190  27.0307538  45.4634017  67.6364700  27.4097631
  43.9368875  63.8560909  33.6393738  43.9316913  62.9840726  33.6436165
  44.6429869  64.0549078  33.1663194  44.0413879  63.7564783  33.5700774
  36.7367523  71.7740665  29.8768585  36.8857087  71.2143581  29.2241990
  37.5167525  71.8532666  30.2601104  36.8741617  71.7026230  29.8365534
  47.0944163  66.9142787  18.1487856  46.7150971  66.1279925  18.1417145
  46.4310408  67.4629645  18.0059500  46.9402637  66.8787611  18.1268653
  39.2620824  71.9455308  31.1553076  39.1864495  71.2764118  31.7103864
  39.1910683  72.6473096  31.6693742  39.2401431  71.9500215  31.3129924
  39.9191071  70.4656307  21.9876682  40.6840962  70.1965950  21.6659346
  39.8169161  69.9806317  22.7046745  40.0172566  70.3545871  22.0456510
  42.4409731  67.4968490  13.9676631  43.2082717  67.5568615  13.5582483
  41.9941040  66.9248932  13.4832950  42.4883159  67.4205066  13.8354342
  43.3387527  66.3023146  26.2529364  42.6632529  66.0708378  26.7542751
  43.3479903  65.6944329  25.6271469  43.2406031  66.1782071  26.2345516
  45.3404262  69.1588279  18.4839542  45.4224099  69.9655265  18.1600993
  45.8254004  69.1784238  19.2080315  45.4241419  69.2808941  18.5426440
  39.1500765  63.8373114  27.1509620  38.7263014  64.0377613  26.4148638
  38.9745620  62.9901962  27.2633919  39.0611645  63.7421896  27.0583310
  38.6512458  75.3523627  29.6131077  39.1408389  74.6534417  29.4306742
  38.0796691  75.0547497  30.2007134  38.6396988  75.2049851  29.6732118
  34.4383210  64.3325166  22.5837592  34.5947829  64.2671969  23.4393584
  34.7783803  65.1073718  22.3716272  34.5116445  64.4374364  22.6792186
  40.9762354  63.7083049  21.4530955  41.5177900  63.2053431  21.9169576
  41.2908913  63.6548244  20.6420441  41.1026751  63.6262470  21.4014767
  44.8479462  67.9185697  38.5657868  45.6614327  67.6470846  38.7263000
  44.6874428  67.6193237  37.7618063  44.9449410  67.8340623  38.4703273
  39.1448804  69.1000401  18.7370983  39.2141624  68.2414939  18.8763984
  39.9237259  69.3172282  18.4090008  39.2701654  69.0053265  18.7088141
  43.5356292  71.5238102  22.9507477  43.1436083  71.2204817  22.2330343
  43.6909364  72.3607192  22.7612431  43.5009882  71.6021939  22.8163974
  31.0117471  61.5160116  22.8998359  31.3916436  61.9344661  22.2358627
  30.4372836  62.0973572  23.2067203  30.9828796  61.6637975  22.8475100
  43.6995966  68.0888091  22.8913507  43.3410621  68.2602734  23.6677540
  43.2134677  68.5501297  22.3341506  43.5754663  68.1827062  22.9238776
  38.4884332  63.7687257  15.4313742  38.7776857  64.5452139  15.7057316
  38.5756131  63.2575988  16.1328241  38.5438588  63.8079175  15.5756240
  44.8600706  68.9791987  33.8380708  45.4980426  68.4852183  33.5043164
  44.2174797  68.9069388  33.2532935  44.8594932  68.8950996  33.7023063
  44.9154962  69.6711795  30.4786065  45.7047341  69.3200860  30.5988147
  45.0898560  70.4848184  30.2162699  45.0575244  69.7397652  30.4573933
  32.1323840  60.7040058  25.3598604  31.7380538  60.7783070  24.5848714
  31.5763957  61.0898004  25.9106966  31.9926652  60.7721833  25.3266264
  37.5231035  58.3202440  21.3456153  37.7990769  57.6021353  20.9333721
  38.1229704  58.9187360  21.1377259  37.6524299  58.3022811  21.2536914
  36.5283289  68.2251641  31.4883549  36.4203644  68.2353703  32.3545607
  36.7379070  69.0506421  31.2988503  36.5433400  68.3492716  31.5887641
  44.3046597  70.9273595  26.3837511  44.1066286  71.4164409  25.6893722
  43.6834308  71.1314836  26.9621644  44.1834161  71.0290133  26.3660734
  38.3654575  62.6958492  20.7247755  39.1096620  63.0832768  20.9630705
  38.5115271  61.8515917  20.8888243  38.4965160  62.6288965  20.7841725
  46.2220399  64.4937747  31.9182759  46.9454598  64.0410274  31.7393779
  45.9570361  64.7742413  31.1355087  46.2901672  64.4688716  31.7761475
  35.2749016  57.4323039  14.7108324  34.9261820  58.0842765  15.1739873
  34.7945462  57.4180152  13.9832195  35.1519260  57.5266093  14.6719415
  42.8353033  67.7324083  18.8177086  43.5587232  68.1982196  18.6741659
  42.3953624  67.7997693  18.0674683  42.8768725  67.8107920  18.6861867
  42.0039188  64.5921626  30.0677775  41.3896181  64.0479676  30.3626410
  42.5206473  64.0785862  29.5883591  41.9894851  64.4358035  30.0402003
  41.2435486  65.6625896  27.8022073  40.8163094  65.0375614  27.3687509
  41.2360430  65.3800817  28.6281080  41.1794627  65.5278676  27.8601901
  27.0828785  63.8226145  27.4507751  26.9772234  63.7772989  26.5859835
  26.3329005  64.1679926  27.7322036  26.9564388  63.8667053  27.3645081
  38.0352130  64.8326208  35.4990646  37.1847761  64.9697923  35.6348291
  38.1980258  64.0989987  35.9438348  37.9335994  64.7440310  35.5846245
  35.6472925  60.0581570  20.2234368  35.7875886  60.5554034  20.9263010
  36.1455457  59.3567864  20.3648582  35.7414006  60.0283548  20.3485947
  35.6773147  60.9248681  17.5526945  36.3118226  61.5209106  17.4876407
  35.7598758  60.6252138  18.3672815  35.7829698  60.9689589  17.6630032
  37.2552130  56.8562656  17.5272387  37.5767971  56.3765739  16.8731649
  37.5179074  57.6662302  17.3363199  37.3418155  56.9052554  17.4027879
  40.4849103  67.8781530  31.0471203  39.9774194  68.4317377  31.4911834
  40.1875749  67.9389820  30.2289978  40.3653988  67.9687842  30.9919660
  32.1826135  63.1216521  20.8216491  32.6918364  63.7181029  21.2027797
  32.6560407  62.8542495  20.1392911  32.3269511  63.1702337  20.7771014
  43.0956883  71.7944788  18.9775147  42.3786193  71.6205650  18.5122384
  43.7463621  71.5597360  18.4450633  43.0858733  71.7340581  18.8304365
  39.7291588  72.8106089  27.9528210  39.5057242  72.0524918  28.3212236
  39.2401431  72.8404110  27.2308650  39.6235037  72.7028313  27.9004951
  34.5416667  59.7572780  23.6889671  33.8228656  60.1736913  23.9562535
  34.9129029  60.3227019  23.1381310  34.4908598  59.9022061  23.6472478
  41.7862577  66.9787821  35.5040144  41.7458432  66.3337498  34.9185300
  42.5985896  66.9224438  35.8165556  41.9005731  66.8746788  35.4637093
  38.3770045  73.0306547  25.4065295  37.9630443  72.3680677  25.0169136
  39.0617419  73.1784406  24.8860989  38.4168417  72.9547205  25.2721792
  41.7435339  72.1896632  26.1588911  41.3451622  72.2998902  25.3909731
  41.1286559  72.3978698  26.7415471  41.5934228  72.2370200  26.1320211
  40.3163241  58.7970780  19.0263051  39.7228080  59.1187776  18.4747618
  40.3538519  57.9511875  18.8184157  40.2337630  58.7195108  18.9145822
  49.4777182  66.7648599  19.5432002  49.8610787  67.5139955  19.7730099
  48.6821295  67.0114418  19.2843991  49.4170964  66.9118293  19.5389575
  29.2208065  61.9569198  29.9680753  28.6734785  61.2869844  30.0861621
  30.0100443  61.5899046  30.0324220  29.2560249  61.8034185  29.9949454
  38.2892473  59.4368031  17.1192381  38.6691438  59.4547660  16.3343496
  37.5485069  59.8822019  16.9983228  38.2361311  59.5049805  16.9855949
  27.9795035  61.1690006  27.1226776  27.8016796  60.7166615  27.8481692
  27.6914057  61.9716168  27.3065254  27.9107988  61.2212564  27.2570279
  43.6418616  62.4247724  26.3604166  44.1372281  61.7070719  26.3208187
  42.8318392  62.1218521  26.2458653  43.5962509  62.2745370  26.3377892
  39.0877227  66.2745537  18.5101171  38.2788550  65.9512210  18.4634480
  39.5952136  65.5678759  18.4429419  39.0426894  66.1226853  18.4931465
  29.7167505  63.7017730  24.2348535  28.8513024  63.6903420  24.1231306
  29.8166320  63.5147953  25.0819674  29.6041672  63.6723791  24.3437480
  35.3424515  73.4715629  27.8078641  35.6571073  74.2852017  27.8156422
  35.7517928  73.0865847  28.4760800  35.4492612  73.5344331  27.9082732
  42.2949034  68.8885675  25.3782453  42.7660212  69.6025938  25.5472438
  42.6309213  68.2884425  25.9142322  42.4144149  68.9057140  25.4814829
  44.3826019  70.4986989  37.5574525  44.4922984  69.7095549  37.9131272
  44.7116915  70.4092925  36.7548863  44.4478425  70.3692842  37.4916915
  42.9322980  68.6803609  32.1410145  42.3843926  68.0561493  31.8730211
  43.3936009  68.8697881  31.4254225  42.9190190  68.6162660  31.9960576
  38.2811644  55.6629559  19.8020012  39.1027338  55.8327872  19.5601707
  37.8181295  55.8176820  19.0786310  38.3342806  55.7111292  19.6591657
  32.6837535  67.4188737  27.4557249  33.2882392  67.3784571  26.8271070
  32.4764847  68.2659889  27.4861305  32.7426432  67.5376739  27.3673366
  42.4981307  69.6854682  28.6719486  43.3179681  69.5417648  28.9335782
  42.2175384  70.3100881  29.2135924  42.5778050  69.7565034  28.7907426
  27.9188817  66.4023355  27.3256172  27.8213095  65.5919626  27.6346229
  28.7017687  66.3815148  26.9402440  28.0204953  66.2790445  27.3143035
  58.9694957  77.3419534  21.6362363  58.9388962  78.1964171  21.8080632
  59.5676306  77.0414826  22.1948506  59.0532115  77.4236030  21.7437165
  52.1694642  76.4295185  26.3915293  51.3132538  76.5903683  26.4424410
  52.2162296  75.5587249  26.4120354  52.0493753  76.3245987  26.4021359
  55.4788359  82.6981710  35.9975749  56.1855126  82.2033741  36.1262684
  55.6676294  83.1390792  35.2678407  55.6116264  82.6900061  35.9084795
  55.0146463  78.4887229  29.0346945  55.5602423  79.1672315  29.0940915
  54.9563339  78.3474690  28.1748526  55.0862377  78.5679230  28.9159005
  43.6275670  74.1682312  26.9451939  43.0080701  73.5774959  26.7761953
  43.5259533  74.7593747  26.3116262  43.5213345  74.1686395  26.8256928
  50.7243565  75.9081854  21.2784402  51.4223730  76.0869981  21.7705865
  51.0395898  75.3852193  20.6554791  50.8738902  75.8575626  21.2586412
  43.3544803  77.7134594  29.1895508  43.2303500  78.2997039  29.8245326
  44.0063087  77.2194789  29.4907783  43.4318452  77.7273398  29.3281437
  48.3803144  80.8896311  28.4683019  49.0252146  80.3968754  28.1493967
  48.6204921  81.0321097  29.2949097  48.5113729  80.8373753  28.5432552
  50.9189235  83.7351217  28.1189911  51.2012478  82.9402622  27.8976667
  51.6475395  84.2131804  28.1394972  51.0678799  83.6885813  28.0892926
  48.8970429  71.2774251  25.3605676  48.5673759  71.7285394  24.6909375
  48.2215431  71.1990414  25.9078683  48.7480865  71.3325386  25.3428900
  56.1046837  67.2659773  23.6055287  55.7900278  67.9563252  24.0375709
  55.5873778  67.2104556  22.9040788  55.9811307  67.3594662  23.5652236
  47.1026383  69.3386539  20.8428624  47.8572351  69.7064856  20.6045674
  46.9253918  69.7126093  21.6107804  47.1880861  69.4484727  20.9213513
  60.3961282  75.4880979  28.8876163  59.5589703  75.5583167  29.1223758
  60.3649513  75.4905474  28.0150466  60.2679564  75.4991206  28.7935711
  46.7926011  77.6314015  34.6024532  46.9646514  77.5219910  35.4509813
  47.3295368  78.2768421  34.3655724  46.8971015  77.7106017  34.6929629
  45.4583448  71.7456858  17.5406737  45.2759021  71.9628739  16.7147730
  46.3209061  71.8595871  17.5965352  45.5588037  71.7946756  17.4261224
  51.1383167  68.7483269  20.5755761  51.8669327  68.5699224  20.1293917
  51.2278060  69.5901348  20.7862939  51.2589829  68.8467147  20.5409279
  55.1191467  79.6836656  24.4788055  55.8748982  80.1168170  24.5176964
  55.2253792  79.0341426  25.0522691  55.2461638  79.6514140  24.5686080
  41.0987728  80.2245946  29.4377452  40.8326143  79.4085063  29.5968442
  41.1126292  80.2699102  28.5672968  41.0612450  80.1102851  29.3330934
  58.0769121  70.5523761  27.4719886  58.7195030  70.6221866  28.0581801
  58.3292142  69.8852984  26.9699428  58.2091254  70.4650110  27.4847165
  45.0045475  75.0231031  16.0529210  44.2903652  74.7369210  16.4651643
  45.4889443  75.3627656  16.6935598  44.9704838  75.0312680  16.2084845
  45.8486334  73.7624324  32.0844460  45.1558131  73.2921304  32.3305191
  46.4646661  73.5362629  32.6586167  45.8370864  73.6591456  32.2053612
  41.5081141  81.0104726  26.7189196  41.3256714  80.9851612  25.8661488
  42.2430810  81.4803663  26.7578105  41.5895205  81.0766088  26.5987115
  44.5726893  77.7289728  33.2271305  45.2966865  77.7142759  33.7136200
  44.6743029  78.4385084  32.7293273  44.6945102  77.8314432  33.2250092
  51.9471842  81.2088813  38.0920252  51.1544823  81.5232325  38.2772872
  52.0620769  81.4240281  37.2541037  51.8467253  81.2872650  37.9958587
  54.6203161  77.9322804  22.3815268  54.7150016  78.6712098  22.8354893
  53.9962005  77.5040280  22.8149832  54.5412191  77.9784125  22.5123415
  52.8755635  81.1109017  33.0305549  53.4494497  80.4736261  33.1854113
  52.7970439  81.1113099  32.1615206  52.9488870  81.0174128  32.9251960
  41.4752052  77.8898226  26.8688263  42.0525554  77.7534677  27.5080508
  40.7766113  77.4334010  27.1233847  41.4573073  77.8020492  27.0010553
  48.2319354  79.5432282  25.0826746  47.9738598  78.7104017  25.0558046
  48.2867837  79.7689895  24.2419246  48.2019132  79.4530053  24.9546883
  53.3120404  71.6460733  25.1830839  52.6076731  71.1569918  25.3414758
  53.3605378  71.6583207  24.3119283  53.2150456  71.5750381  25.0770179
  47.2054066  77.0970044  25.5691641  46.6303657  77.2562213  26.2055602
  46.8289742  76.4605453  25.1060091  47.0656878  77.0267857  25.5946199
  50.8727355  75.5693394  30.4284019  50.4841787  75.1447611  29.7736210
  50.2082053  75.8175543  30.9361046  50.7174282  75.5432115  30.4071887
  60.5150624  75.3268398  23.2031849  60.2587189  74.5148340  23.0129732
  61.3579938  75.3345965  22.9762037  60.6016649  75.2080396  23.1416666
  36.9510885  76.7410119  23.5836081  37.0371137  76.3641987  24.3649611
  37.5786682  76.3670565  23.1056040  37.0567436  76.6295601  23.6281559
  54.6953716  69.2668022  27.9408003  55.0764228  68.5846193  28.3275878
  53.8917000  68.9777624  27.7583668  54.6330178  69.1235071  27.9712059
  47.8474201  83.2713516  23.7533138  48.4848148  83.0325263  24.2984932
  48.2729273  83.4750675  23.0186299  48.0050367  83.2664526  23.7250296
  48.4877016  78.4915805  18.0908028  48.8722169  78.2723512  18.8424573
  48.2388636  79.3178751  18.2209104  48.5079089  78.5813952  18.2209104
  48.6545557  71.7722221  37.8070612  48.3398998  72.5421783  37.5440175
  48.3335489  71.2092477  37.2222839  48.5604476  71.8032489  37.6811962
  50.2295673  83.7485938  25.4326925  50.3034681  83.5861110  26.2868775
  51.0465179  83.9376128  25.1887406  50.3612032  83.7522681  25.5224950
  46.2077453  70.1612742  23.4216808  45.3399879  70.2335342  23.4874417
  46.4952658  70.9634821  23.6104783  46.1217202  70.2906889  23.4591575
  55.3310342  70.3090602  31.7528130  56.0763934  70.1200412  31.3391555
  54.9147647  70.8348839  31.1941986  55.3795316  70.3592747  31.6092703
  62.7072613  77.6799830  26.7033635  63.2580535  77.0467899  26.9430727
  62.6916728  78.2115223  27.3949139  62.7857809  77.6648778  26.8412493
  49.3595004  81.5138427  31.2493528  48.8606698  82.2254195  31.3278417
  50.1695228  81.8339094  31.2111691  49.4051111  81.6665276  31.2550097
  45.6223122  80.7761380  25.4956249  45.3336370  80.1498852  26.0301977
  46.4906470  80.7181668  25.5620930  45.7083373  80.6748925  25.5847204
  56.4101019  75.9196164  25.8138231  56.0665785  75.1986499  26.1645481
  56.5094062  75.7110015  24.9716589  56.3743062  75.7820367  25.7409911
  45.8255395  82.4156631  21.4198614  46.5801363  82.7969670  21.6334077
  45.2326008  82.8667775  21.8745311  45.8492108  82.5385459  21.5181493
  48.2862062  74.3719472  36.5455827  47.4761838  74.6777251  36.4345669
  48.7636749  75.0925054  36.6608411  48.2365541  74.5234073  36.5462898
  44.1344806  73.6371001  20.8633684  43.8469601  73.2672272  20.1265632
  44.8215274  74.1065857  20.6017389  44.1933703  73.6517971  20.7148760
  48.5719947  80.6169212  22.1920221  48.3762730  81.2243946  21.5980524
  48.7954293  79.9237156  21.7111895  48.5754588  80.6046737  22.0336302
  46.9698477  77.5023950  22.3101089  47.6921129  77.6665108  21.8504895
  46.4906470  78.2233614  22.2040429  47.0062208  77.6322179  22.2266703
  54.9291985  73.8387748  27.6897774  54.0903085  73.8649027  27.4536037
  54.9996352  74.4858484  28.2703121  54.8160378  73.9383874  27.7406891
  44.6206094  79.9082022  31.4155229  45.1327191  80.1866275  30.7663989
  44.3342436  80.6471316  31.7818042  44.6540957  80.0584376  31.3745107
  53.3761263  70.7373125  22.4225390  54.0787616  70.5380874  21.9445348
  53.1105452  69.9649068  22.7294234  53.4407895  70.5936091  22.3970832
  58.8049509  79.0455735  24.9759016  58.7183483  79.2011161  25.8293795
  58.3499988  79.6893811  24.6018421  58.7252765  79.1631490  25.0466123
  41.7073000  74.4152214  21.7118966  41.8089137  75.2178375  22.0399941
  42.5028887  74.2139550  21.4142046  41.8400906  74.5038113  21.7154321
  48.1389819  72.0008411  31.4756271  47.9473016  72.0163545  32.3255694
  48.9888415  72.1972085  31.4522926  48.2365541  72.0322762  31.5979565
  42.5236732  74.5299392  29.4540087  42.3822224  73.6783333  29.5784595
  42.8077296  74.5728053  28.6302293  42.5444578  74.4099142  29.3507711
  52.6775325  76.3666482  23.5984575  52.4310039  76.2862233  24.4321364
  53.0060448  75.5819950  23.4047103  52.6896568  76.2392748  23.6932098
  54.9101459  79.3746217  33.6393738  54.9049497  78.5026034  33.6436165
  55.6162452  79.5734386  33.1663194  55.0146463  79.2750091  33.5700774
  48.6372352  79.1023201  33.0107558  48.7815728  79.6824409  32.3750668
  48.9848000  79.4799498  33.7157413  48.7099813  79.2443905  33.0206553
  50.8092269  78.3013369  30.7932690  50.0615583  78.4944384  30.3880968
  50.9633794  77.4758589  30.5556811  50.7214697  78.2078481  30.6978096
  51.0494046  72.1963920  31.6828094  51.5066660  72.9287894  31.8100886
  51.1250375  71.7730385  32.4415350  51.1285016  72.2421158  31.8129170
  43.2927038  72.4429740  32.7717537  42.7569227  71.8310098  33.0878305
  43.3544802  73.0177876  33.4251204  43.2222670  72.4376667  32.9152964
  55.5221372  65.3753795  25.5521937  55.6404940  65.8330258  24.8189239
  55.3483548  64.5699056  25.2658154  55.5140543  65.3247567  25.4022870
  48.9276424  74.1866024  28.5269918  48.1372499  74.0057484  28.8487254
  49.3237047  73.4092976  28.5100212  48.8693300  74.0453485  28.5722466
  54.3120111  81.8208454  26.2529364  53.6365112  81.5893686  26.7542751
  54.3212487  81.2129637  25.6271469  54.2138615  81.6967379  26.2345516
  51.4414254  76.6626283  33.0093417  51.3773396  77.5236239  32.8813553
  51.5811442  76.3458276  32.2088968  51.4529725  76.7426450  32.8721630
  50.1233348  79.3558422  27.1509620  49.6995597  79.5562921  26.4148638
  49.9478204  78.5087270  27.2633919  50.0344229  79.2607204  27.0583310
  45.4115793  79.8510474  22.5837592  45.5680413  79.7857277  23.4393584
  45.7516386  80.6259026  22.3716272  45.4849028  79.9559672  22.6792186
  51.9494938  79.2268357  21.4530955  52.4910483  78.7238738  21.9169576
  52.2641497  79.1733552  20.6420441  52.0759335  79.1447778  21.4014767
  53.0984207  74.1204662  31.5053256  53.3126177  73.4815576  30.9516610
  52.4818107  74.5650486  31.0761118  53.0389537  74.0914806  31.3603687
  41.9850055  77.0345424  22.8998359  42.3649020  77.4529969  22.2358627
  41.4105420  77.6158880  23.2067203  41.9561380  77.1823283  22.8475100
  55.2623295  75.7293727  32.4436563  54.4499977  75.4219617  32.5249736
  55.7213230  75.2492727  33.0079275  55.2103680  75.6130219  32.5391157
  52.3576803  77.1353799  37.2265265  52.8276434  77.7595915  37.6133139
  52.4038683  76.4670774  37.7858480  52.4344679  77.1288479  37.3665337
  49.5148076  69.2410826  27.9514069  48.9986565  68.5491017  28.0765648
  48.9542005  69.9081603  27.8976668  49.3554590  69.2374084  27.9620135
  51.5840310  69.7803786  29.7806922  51.1972063  69.8052818  30.5620452
  51.0973247  69.2145465  29.3281438  51.4552819  69.6999537  29.8294825
  57.5590289  76.3466441  28.4046624  57.1317898  76.2592790  27.6494723
  56.9216342  76.4544216  28.9901468  57.4019897  76.3499101  28.3792065
  51.0511367  71.4541966  34.3443593  51.8784796  71.1827115  34.4002208
  51.0719213  72.2502808  34.7007411  51.1764217  71.5321720  34.4058776
  45.6280856  78.6005829  27.5313854  44.7868863  78.5009703  27.7392748
  45.8370864  79.3701309  27.8828174  45.5345549  78.6997872  27.6141169
  43.1056423  76.2225366  25.3598604  42.7113121  76.2968378  24.5848714
  42.5496540  76.6083312  25.9106966  42.9659236  76.2907141  25.3266264
  54.7421370  69.2006660  25.0402483  54.9470964  69.1328968  25.8859480
  54.4147794  70.0065481  24.9723661  54.7236618  69.3092600  25.1562138
  49.4397521  76.5287228  26.7811451  49.1360659  75.9743216  27.3821859
  48.7376942  76.7079438  26.2939485  49.2913731  76.4732011  26.7981157
  48.4963618  73.8387748  21.3456153  48.7723353  73.1206661  20.9333721
  49.0962288  74.4372668  21.1377259  48.6256883  73.8208119  21.2536914
  57.9955058  69.7538424  24.5205249  57.3829371  70.2408826  24.9058981
  58.0919233  69.0781915  25.0642900  57.9192955  69.7256733  24.6584107
  51.9974139  71.5101265  19.6202748  52.4517885  71.6811826  20.3450593
  52.4714185  70.8969376  19.2200524  52.1342459  71.4452151  19.6676510
  45.5189664  80.9949591  28.9505487  44.9277598  81.6359090  28.9208502
  46.2810688  81.4187209  28.9236786  45.5437925  81.1525430  28.9420634
  45.9150287  72.1551589  29.6173504  46.3751769  72.2290519  30.3548628
  45.9606394  72.9532843  29.2673326  45.9900842  72.2845736  29.6746261
  47.5633637  72.8218284  34.1845531  47.1719202  72.1751631  34.6201309
  47.7319500  73.4129719  34.8039787  47.5304547  72.8132552  34.3408237
  49.3387159  78.2143800  20.7247755  50.0829204  78.6018076  20.9630705
  49.4847855  77.3701225  20.8888243  49.4697744  78.1474273  20.7841725
  51.2566734  70.0094059  25.7579617  50.4102779  70.1816866  25.6320967
  51.2537867  69.2043402  26.0945445  51.1313884  69.9155088  25.7890744
  52.3265035  73.7869273  26.6241675  51.8524989  73.2611035  27.1346986
  52.6983171  73.2398746  26.0556536  52.3114924  73.6285270  26.6156822
  42.7038065  75.7840780  31.9925220  43.5663678  75.6836489  31.9062550
  42.3729848  75.2035489  31.4310793  42.7823261  75.6832406  31.8970626
  58.5901765  78.8471649  28.0348455  58.3499988  78.0078064  28.0390882
  59.0693772  78.9271815  28.7589229  58.6253949  78.7353048  28.1423258
  54.2548534  74.6805828  19.6867429  53.7271553  74.7634572  18.9973137
  54.7144243  75.4223699  19.6832073  54.2450385  74.8026490  19.5842124
  60.5906952  75.6273106  25.9877714  60.3516722  75.5868940  25.1498499
  60.7540854  76.4744258  26.1143435  60.5797256  75.7465191  25.8831196
  57.1952982  80.0123055  31.9182759  57.9187181  79.5595582  31.7393779
  56.9302945  80.2927721  31.1355087  57.2634256  79.9874024  31.7761475
  46.2481600  72.9508347  14.7108324  45.8994404  73.6028072  15.1739873
  45.7678045  72.9365460  13.9832195  46.1251843  73.0451401  14.6719415
  52.9771772  80.1106933  30.0677775  52.3628765  79.5664984  30.3626410
  53.4939057  79.5971170  29.5883591  52.9627434  79.9543342  30.0402003
  52.2168069  81.1811203  27.8022073  51.7895677  80.5560922  27.3687509
  52.2093013  80.8986125  28.6281080  52.1527210  81.0463984  27.8601901
  45.3330596  76.2176377  30.8710507  45.4924083  75.4619701  31.2762229
  45.1523490  76.7667316  31.5251245  45.3295955  76.1870190  31.0273213
  53.2750899  68.3837612  31.4261297  52.7791460  68.5801286  30.7352863
  54.0319961  68.7830280  31.2550098  53.3137724  68.4715346  31.2981433
  50.5453779  72.0579958  28.0164607  50.5696266  71.5240070  27.3277387
  50.7965252  71.5497267  28.6790198  50.5863697  71.9040862  28.0129252
  38.0561369  79.3411453  27.4507751  37.9504818  79.2958297  26.5859835
  37.3061589  79.6865234  27.7322036  37.9296972  79.3852361  27.3645081
  46.8255101  70.7850776  27.3970352  46.8653473  71.2859983  28.1105059
  46.0004766  70.8761170  27.1276275  46.7094627  70.8732593  27.4620890
  49.0084714  80.3511516  35.4990646  48.1580344  80.4883231  35.6348291
  49.1712842  79.6175294  35.9438348  48.9068577  80.2625617  35.5846245
  48.2469464  77.3011286  29.6944251  47.4161394  77.4685104  29.4879499
  48.1920982  76.9247237  30.4793136  48.1158879  77.2701017  29.7792779
  46.0553248  70.7920179  35.3300661  46.6805951  70.2482312  35.6030093
  45.6003728  70.3115097  34.7608452  46.0801508  70.6409660  35.2862255
  46.6205508  75.5766878  20.2234368  46.7608469  76.0739342  20.9263010
  47.1188041  74.8753172  20.3648582  46.7146589  75.5468856  20.3485947
  46.6505731  76.4433989  17.5526945  47.2850810  77.0394414  17.4876407
  46.7331341  76.1437446  18.3672815  46.7562282  76.4874897  17.6630032
  59.6288296  78.9749466  30.4213309  60.2206137  79.6146717  30.4531507
  60.0647291  78.2772503  30.7105376  59.7806728  78.9667816  30.4694142
  48.2284713  72.3747964  17.5272387  48.5500555  71.8951047  16.8731649
  48.4911657  73.1847610  17.3363199  48.3150739  72.4237862  17.4027879
  51.4581686  83.3966838  31.0471203  50.9506777  83.9502685  31.4911834
  51.1608332  83.4575128  30.2289978  51.3386571  83.4873150  30.9919660
  53.6243868  71.7620158  29.8895866  54.0498940  71.3092684  29.2779393
  53.0100862  71.2080229  30.1660654  53.5972514  71.6134134  29.8400891
  43.1558719  78.6401829  20.8216491  43.6650948  79.2366337  21.2027797
  43.6292991  78.3727803  20.1392911  43.3002094  78.6887645  20.7771014
  52.0638091  68.2335258  23.2986443  51.4206409  68.0832904  23.8671582
  51.7237498  67.9877603  22.5335548  51.9183169  68.1747380  23.2689458
  56.6537438  76.1894685  22.7216452  55.9828628  76.7324387  22.5929517
  57.3477188  76.6589540  22.4798147  56.6566305  76.3392956  22.6671979
  56.8165565  72.6450568  25.6306825  57.1693175  72.2180291  26.3052624
  55.9580367  72.5601412  25.7607901  56.7415010  72.5695309  25.7501835
  45.5149250  75.2758088  23.6889671  44.7961239  75.6922221  23.9562535
  45.8861613  75.8412327  23.1381310  45.4641182  75.4207369  23.6472478
  54.8148831  75.9085937  29.5791667  54.7946758  75.7269232  30.4326446
  54.8628032  76.7797955  29.5551251  54.8183472  76.0102475  29.7014962
  52.7595161  82.4973129  35.5040144  52.7191016  81.8522806  34.9185300
  53.5718479  82.4409746  35.8165556  52.8738314  82.3932096  35.4637093
  51.2895825  74.3156088  19.0263051  50.6960664  74.6373084  18.4747618
  51.3271102  73.4697183  18.8184157  51.2070214  74.2380416  18.9145822
  58.2489625  67.7668980  26.5591137  57.7420490  67.0598120  26.4912315
  59.0457059  67.4362169  26.6892214  58.2916865  67.6142132  26.5690132
  54.1653641  74.2735592  22.4564801  53.9367334  74.2968294  21.6143159
  54.4251717  73.4493059  22.5759812  54.1699829  74.1551672  22.3489999
  48.4472870  76.1270065  32.0589901  47.9351773  75.5191248  32.4174933
  48.2752366  76.8426658  32.5263877  48.3462507  76.1433365  32.1806125
  43.2938584  74.5707641  34.7092263  43.1241175  75.2309016  34.1640470
  42.8504534  74.7814202  35.4304752  43.2037918  74.6993623  34.7353893
  52.3241940  74.0494310  34.4992157  52.8813370  73.8208120  33.8670622
  52.0003005  74.8099976  34.2227369  52.3588350  74.1278147  34.3648654
  40.1940649  77.4754506  29.9680753  39.6467368  76.8055152  30.0861621
  40.9833027  77.1084354  30.0324220  40.2292832  77.3219493  29.9949454
  50.0425057  77.1361963  35.4644164  50.7936384  77.4513640  35.7783718
  50.2347634  76.9341134  34.6378086  50.1816471  77.1529345  35.3887560
  49.2625057  74.9553338  17.1192381  49.6424022  74.9732968  16.3343496
  48.5217653  75.4007327  16.9983228  49.2093895  75.0235113  16.9855949
  56.8910347  73.2635530  22.7067959  56.8904574  73.1084186  23.5652236
  56.6866527  74.1098517  22.6509345  56.8610125  73.3656150  22.8255899
  38.9527618  76.6875314  27.1226776  38.7749379  76.2351923  27.8481692
  38.6646640  77.4901476  27.3065254  38.8840571  76.7397872  27.2570279
  54.6151199  77.9433031  26.3604166  55.1104865  77.2256027  26.3208187
  53.8050975  77.6403829  26.2458653  54.5695093  77.7930678  26.3377892
  40.6900088  79.2203038  24.2348535  39.8245608  79.2088728  24.1231306
  40.7898904  79.0333261  25.0819674  40.5774255  79.1909099  24.3437480
  56.6803018  80.6936719  29.0481295  57.1058090  80.1711141  28.4951720
  56.3159938  81.2917556  28.5269918  56.6889621  80.7046946  28.8890305
  53.2681618  84.4070983  25.3782453  53.7392796  85.1211246  25.5472438
  53.6041796  83.8069733  25.9142322  53.3876733  84.4242448  25.4814829
  50.1851113  69.1798454  32.3340547  50.3179018  68.3829447  32.6621523
  50.5696265  69.7064857  32.9138823  50.2607442  69.1398371  32.4684050
  53.9055564  84.1988917  32.1410145  53.3576510  83.5746801  31.8730211
  54.3668593  84.3883189  31.4254225  53.8922774  84.1347968  31.9960576
  56.7149428  72.2674272  29.5261338  56.1312417  72.7683478  29.1138905
  57.0353722  71.7603828  28.8925661  56.6762604  72.2666107  29.3719845
  49.2544228  71.1814867  19.8020012  50.0759922  71.3513180  19.5601707
  48.7913878  71.3362128  19.0786310  49.3075390  71.2296600  19.6591657
  47.8439559  69.1757629  30.5818441  48.3883972  68.8348756  31.1722783
  47.8976495  70.0343090  30.7239726  47.9328679  69.2512888  30.6900315
  22.2541432  13.0803918  22.9315796  22.9608199  12.5855949  23.0602731
  22.4429367  13.5212999  22.2018454  22.3869337  13.0722268  22.8424842
  19.3933726  16.5031454  20.8229871  19.4817072  16.3157595  21.6708082
  19.8223439  15.8568884  20.4234718  19.4695828  16.3794462  20.8901623
  16.9604186  15.7862614  19.8047534  16.3975021  15.3735224  20.3287195
  17.7225209  15.7115520  20.2240677  16.9898634  15.7140015  19.9440534
  13.5679084   8.0136222  21.5364579  13.7399588   7.9042117  22.3849860
  14.1048441   8.6590628  21.2995771  13.6724088   8.0928224  21.6269676
  19.5053785  15.9340473  23.4873655  20.2894202  16.0471321  23.8529397
  19.3050380  15.1081611  23.6832341  19.5919811  15.8287193  23.5708041
  19.6624179  17.8450575  17.1340111  18.8639424  17.6050076  17.3913979
  20.1110190  17.8964968  17.8807158  19.6098790  17.8172967  17.2825035
  18.7224916  11.5911020  25.0260299  17.9297896  11.9054532  25.2112918
  18.8373843  11.8062489  24.1881083  18.6220326  11.6694857  24.9298634
  19.6508708  11.4931224  19.9645595  20.2247570  10.8558468  20.1194159
  19.5723512  11.4935307  19.0955253  19.7241943  11.3996336  19.8592006
  24.9728856  12.8640202  19.9730449  24.7367494  12.0328267  19.8542509
  25.6172085  12.8125809  20.5585293  25.0323527  12.7337890  20.0416342
  25.9965277  12.6484651  16.0358743  25.6911094  13.3812707  16.3972059
  25.2771493  12.2422580  15.7551529  25.8452619  12.6966383  16.0471880
  31.6967069   9.2877651  15.3627087  31.6291569   9.3073610  14.4929674
  31.6822731  10.1307978  15.5882758  31.6845825   9.4151386  15.2679564
  16.1348077  11.8960635  18.1833575  15.6359771  12.6076402  18.2618464
  16.9448301  12.2161301  18.1451738  16.1804184  12.0487483  18.1890144
  15.0615135   4.7541679  23.4795874  14.2514911   5.0599459  23.3685716
  15.5389822   5.4747261  23.5948458  15.0118614   4.9056280  23.4802945
  21.6854532   9.7568424  20.5733785  21.6802570   8.8848241  20.5776212
  22.3915526   9.9556594  20.1003241  21.7899536   9.6572299  20.5040821
  15.4125425   9.4845408  19.9447605  15.5568801  10.0646616  19.3090715
  15.7601074   9.8621705  20.6497460  15.4852886   9.6266112  19.9546600
  14.4853180  17.6748180  16.8108632  14.6342744  17.1151096  16.1582037
  15.2653182  17.7540182  17.1941151  14.6227274  17.6033746  16.7705581
  17.0106481  17.8462823  18.0893123  16.9350152  17.1771634  18.6443911
  16.9396340  18.5480611  18.6033789  16.9887088  17.8507730  18.2469971
  16.3998115  21.2531143  16.5471124  16.8894045  20.5541932  16.3646788
  15.8282347  20.9555013  17.1347181  16.3882645  21.1057366  16.6072165
  22.5965119  13.8193212  25.4997914  23.4099984  13.5478361  25.6603047
  22.4360085  13.5200752  24.6958110  22.6935067  13.7348138  25.4043320
  22.0376369   6.1115934  19.3776610  21.2253050   5.8041825  19.4589782
  22.4966303   5.6314935  19.9419322  21.9856753   5.9952427  19.4731204
  19.1329876   7.5176006  24.1605312  19.6029507   8.1418122  24.5473186
  19.1791756   6.8492981  24.7198527  19.2097752   7.5110686  24.3005383
  22.6086363  14.8799502  20.7720755  23.2466083  14.3859698  20.4383211
  21.9660454  14.8076903  20.1872982  22.6080589  14.7958511  20.6363110
  22.6640619  15.5719311  17.4126112  23.4532997  15.2208375  17.5328193
  22.8384217  16.3855699  17.1502746  22.8060901  15.6405168  17.3913980
  14.2768945  14.1259156  18.4223596  14.1689300  14.1361218  19.2885654
  14.4864727  14.9513937  18.2328550  14.2919057  14.2500231  18.5227687
  28.4133159  11.2077568  16.8822812  28.4716283  11.6564217  17.6282788
  27.7799627  11.6176381  16.4452892  28.3284454  11.3351303  16.9275360
  22.0532254  16.8281110  13.3177558  21.8551942  17.3171925  12.6233769
  21.4319965  17.0322352  13.8961691  21.9319818  16.9297649  13.3000781
  23.9706056  10.3945263  18.8522806  24.6940255   9.9417789  18.6733826
  23.7056018  10.6749928  18.0695134  24.0387329  10.3696231  18.7101522
  15.7837787  10.7333724  22.4330693  14.9333418  10.8705438  22.5688338
  15.9465915   9.9997502  22.8778395  15.6821651  10.6447825  22.5186292
  26.4041370   9.3571673  17.3553356  26.9959210   9.9968924  17.3871554
  26.8400364   8.6594710  17.6445423  26.5559801   9.3490024  17.4034189
  18.2334759  13.7789046  17.9811250  17.7259851  14.3324893  18.4251880
  17.9361406  13.8397336  17.1630024  18.1139644  13.8695357  17.9259707
  17.4777245  18.7113604  14.8868257  17.2542899  17.9532433  15.2552283
  16.9887088  18.7411625  14.1648697  17.3720694  18.6035829  14.8344998
  19.5348234  12.8795336  22.4380191  19.4944089  12.2345013  21.8525346
  20.3471552  12.8231954  22.7505603  19.6491388  12.7754303  22.3977140
  19.0995013   4.4316517  21.4332204  19.6566443   4.2030327  20.8010669
  18.7756078   5.1922183  21.1567416  19.1341423   4.5100354  21.2988701
  16.8178130   7.5184171  22.3984211  17.5689457   7.8335848  22.7123765
  17.0100707   7.3163342  21.5718133  16.9569545   7.5351553  22.3227607
  23.4556091  11.0758926  15.9821342  23.8811163  10.5533348  15.4291767
  23.0913011  11.6739764  15.4609965  23.4642694  11.0869153  15.8230352
  13.0910171  19.3723144  14.7418687  13.4056730  20.1859532  14.7496469
  13.5003585  18.9873363  15.4100847  13.1978269  19.4351846  14.8422779
  22.1311676  16.3994504  24.4914571  22.2408641  15.6103065  24.8471319
  22.4602572  16.3100440  23.6888910  22.1964081  16.2700357  24.4256962
  20.6808637  14.5811125  19.0750192  20.1329583  13.9569008  18.8070257
  21.1421666  14.7705397  18.3594271  20.6675847  14.5170175  18.9300623
  20.2466964  15.5862197  15.6059533  21.0665337  15.4425164  15.8675828
  19.9661041  16.2108396  16.1475971  20.3263707  15.6572550  15.7247473
  36.7180614  23.2427049   8.5702410  36.6874618  24.0971686   8.7420679
  37.3161963  22.9422342   9.1288553  36.8017772  23.3243546   8.6777212
  29.9180299  22.3302700  13.3255340  29.0618194  22.4911198  13.3764457
  29.9647953  21.4594764  13.3460401  29.7979410  22.2253502  13.3361406
  24.3021439  31.8665418   9.0892572  23.5504338  31.4880956   8.8608617
  24.7507450  31.8983852   8.3411382  24.2571105  31.8151025   8.9450074
  29.7546398  32.2890788   4.5178119  29.4197767  32.9667709   4.0822341
  30.2673269  31.8996099   3.9294990  29.7811980  32.3315366   4.3664910
  29.2950690  34.2405056  10.4589230  29.6790069  34.8091955   9.9194006
  29.2309831  33.5154567   9.9795046  29.3424117  34.2180520  10.3083093
  32.7632120  24.3894744  15.9686992  33.3088080  25.0679831  16.0280961
  32.7048996  24.2482205  15.1088573  32.8348034  24.4686746  15.8499052
  25.8806195  31.8783810  11.3555344  25.9816558  31.0684164  11.6652472
  25.2847940  31.7840757  10.7255023  25.8078733  31.7448838  11.3081583
  34.5397188  25.8179351   6.8420719  34.4236714  26.5687037   7.2712858
  35.3353075  25.5603304   7.0916806  34.6401778  25.8914198   6.9424811
  25.7206934  36.7961399  12.7570200  26.3644390  37.2374563  13.1466359
  26.0463190  35.9914826  12.6700459  25.8638763  36.7426594  12.8015677
  19.0771239  27.9004097  10.9807678  18.8421423  27.0671749  10.8739947
  19.2156880  28.1808762  10.1668879  19.0626901  27.8187600  10.8450033
  21.3761326  20.0689827  13.8791985  20.7566358  19.4782475  13.7102000
  21.2745190  20.6601263  13.2456309  21.2699002  20.0693910  13.7596975
  26.4227514  29.8073374   8.1290062  26.7443355  30.3478582   7.5251370
  27.0699610  29.2370146   8.2612352  26.5653569  29.8032549   8.0597097
  28.4729222  21.8089369   8.2124449  29.1709387  21.9877497   8.7045912
  28.7881555  21.2859709   7.5894838  28.6224559  21.7583141   8.1926459
  21.1030459  23.6142109  16.1235554  20.9789156  24.2004555  16.7585373
  21.7548744  23.1202305  16.4247829  21.1804109  23.6280914  16.2621484
  28.6617157  28.1959814   8.2004240  29.1010793  27.5876915   8.6459013
  28.5121820  27.8167188   7.4289705  28.7038623  28.0498285   8.1523407
  26.1288800  26.7903826  15.4023066  26.7737803  26.2976269  15.0834014
  26.3690577  26.9328613  16.2289144  26.2599386  26.7381268  15.4772599
  28.6674892  29.6358732  15.0529958  28.9498135  28.8410138  14.8316714
  29.3961052  30.1139319  15.0735019  28.8164455  29.5893329  15.0232973
  26.6456086  17.1781766  12.2945723  26.3159416  17.6292909  11.6249422
  25.9701087  17.0997929  12.8418730  26.4966522  17.2332901  12.2768946
  32.2626494  26.5486995   5.1535009  32.1777789  27.4047962   5.2984578
  32.7510877  26.2731320   5.8217168  32.3215391  26.6344317   5.2737091
  33.8532493  13.1667289  10.5395334  33.5385934  13.8570767  10.9715756
  33.3359435  13.1112071   9.8380835  33.7296964  13.2602177  10.4992283
  33.1944927  23.1671790   6.6532744  32.6656399  23.3831423   7.3130051
  33.7169947  23.8607928   6.5733714  33.1933380  23.3014927   6.7388344
  38.6492980  28.7418094  12.0265789  37.8190683  28.9528738  12.1899205
  38.6002232  27.9155149  11.7508072  38.5199716  28.6507700  12.0103154
  20.6388564  32.7789768  12.2563884  20.1556142  33.5040257  12.2323468
  21.4511882  33.0765898  12.3674042  20.6879311  32.9292121  12.2691163
  26.7102718  31.5721948  14.8613698  26.1929659  31.2129363  14.2575006
  27.4077109  31.0484123  14.8719764  26.7368299  31.4419636  14.7743957
  27.9336769  31.3047922  19.8047534  27.3707604  30.8920532  20.3287195
  28.6957793  31.2300828  20.2240677  27.9631218  31.2325323  19.9440534
  23.4932761  33.2945943  12.4084164  24.1953340  32.7797933  12.4656920
  23.4130244  33.6220095  13.2131039  23.5856521  33.2660170  12.5356956
  38.1446938  21.3888495  15.8216210  37.3075359  21.4590682  16.0563805
  38.1135169  21.3912990  14.9490513  38.0165221  21.3998722  15.7275758
  24.5411667  23.5321530  21.5364579  24.7132171  23.4227425  22.3849860
  25.0781025  24.1775936  21.2995771  24.6456671  23.6113532  21.6269676
  22.8183536  29.4852295  11.9169772  23.6572436  29.7175228  11.9643533
  22.8495305  28.6156607  11.8476807  22.9465254  29.3909242  11.9134416
  23.4436239  29.9053171  16.2183077  23.9834464  29.7624302  16.8886450
  22.7606186  30.3049921  16.5867104  23.4228393  29.9432842  16.3717499
  32.8677124  25.5844171  11.4128102  33.6234639  26.0175686  11.4517010
  32.9739449  24.9348941  11.9862738  32.9947295  25.5521655  11.5026127
  35.9057295  29.4117449  12.1630505  35.4692527  29.4154191  12.9189476
  35.5720211  30.0922948  11.7310082  35.7919915  29.5129904  12.2111337
  18.8473384  26.1253461  16.3717499  18.5811800  25.3092578  16.5308489
  18.8611949  26.1706617  15.5013014  18.8098107  26.0110366  16.2670981
  35.8254778  16.4531276  14.4059933  36.4680687  16.5229381  14.9921848
  36.0777799  15.7860499  13.9039475  35.9576910  16.3657625  14.4187212
  23.5971991  19.6631840  19.0184507  22.9043788  19.1928819  19.2645238
  24.2132318  19.4370144  19.5926214  23.5856521  19.5598972  19.1393659
  30.6356762  33.3635883  17.1340111  29.8372008  33.1235383  17.3913979
  31.0842774  33.4150276  17.8807158  30.5831374  33.3358275  17.2825035
  39.0401642  26.1298368  11.0550142  39.7018076  25.5689037  10.9546050
  38.3993054  25.6350399  11.3802833  39.0430509  25.9734777  11.0882482
  29.9278449  29.4268500   3.3631065  30.3429598  29.0953524   2.6715561
  29.0970379  29.1937402   3.2351202  29.8666458  29.3439756   3.2421913
  19.2566798  26.9112241  13.6529243  19.0742371  26.8859127  12.8001535
  19.9916467  27.3811179  13.6918152  19.3380862  26.9773603  13.5327162
  35.3266472  27.1463751  10.7962131  35.5622061  27.2908950   9.9688981
  35.4756036  27.9106159  11.1893644  35.3832276  27.2802805  10.7325735
  22.3212550  23.6297244  20.1611352  23.0452522  23.6150274  20.6476246
  22.4228686  24.3392599  19.6633320  22.4430759  23.7321947  20.1590139
  37.1556929  25.9865417   8.6331734  37.4865146  26.5193057   8.0271829
  37.7290017  26.0404305   9.2893685  37.2890608  26.0734986   8.6409516
  32.3688818  23.8330319   9.3155315  32.4635672  24.5719614   9.7694940
  31.7447662  23.4047795   9.7489879  32.2897848  23.8791640   9.4463462
  30.6241292  27.0116532  19.9645595  31.1980154  26.3743776  20.1194159
  30.5456096  27.0120615  19.0955253  30.6974527  26.9181643  19.8592006
  19.2237708  23.7905742  13.8028310  19.8011211  23.6542192  14.4420555
  18.5251770  23.3341526  14.0573894  19.2058730  23.7028008  13.9350599
  25.9805011  25.4439797  12.0166793  25.7224255  24.6111532  11.9898092
  26.0353493  25.6697410  11.1759293  25.9504788  25.3537568  11.8886930
  31.0606061  17.5468248  12.1170886  30.3562387  17.0577433  12.2754805
  31.1091035  17.5590722  11.2459330  30.9636112  17.4757896  12.0110225
  24.9539723  22.9977560  12.5031688  24.3789314  23.1569728  13.1395649
  24.5775399  22.3612969  12.0400138  24.8142535  22.9275373  12.5286246
  28.6213011  21.4700909  17.3624066  28.2327444  21.0455127  16.7076257
  27.9567710  21.7183059  17.8701093  28.4659939  21.4439630  17.3411934
  38.2636281  21.2275914  10.1371896  38.0072845  20.4155855   9.9469779
  39.1065594  21.2353481   9.9102083  38.3502306  21.1087911  10.0756713
  32.4439373  15.1675538  14.8748050  32.8249885  14.4853709  15.2615924
  31.6402657  14.8785140  14.6923715  32.3815835  15.0242586  14.9052106
  29.7251950  25.6999514   5.5600873  30.5392588  25.9914406   5.4483644
  29.6611091  25.0459376   4.9859166  29.8354689  25.6464708   5.4589710
  25.5959858  29.1721031  10.6873185  26.2333805  28.9332779  11.2324978
  26.0214929  29.3758190   9.9526346  25.7536024  29.1672041  10.6590342
  20.2872500  31.4109368  14.5707489  20.3276646  31.6824219  13.7427268
  20.8467024  31.9351276  14.9865277  20.3755846  31.5285123  14.5099377
  26.4031213  17.6729736  24.7410659  26.0884654  18.4429299  24.4780221
  26.0821146  17.1099992  24.1562886  26.3090132  17.7040005  24.6152009
  36.9697860  28.1669958  16.0358743  36.6643677  28.8998015  16.3972059
  36.2504076  27.7607888  15.7551529  36.8185203  28.2151691  16.0471880
  27.9781330  29.6493454  12.3666971  28.0520338  29.4868625  13.2208821
  28.7950836  29.8383643  12.1227453  28.1097688  29.6530196  12.4564997
  42.6699653  24.8062959  15.3627087  42.6024153  24.8258918  14.4929674
  42.6555315  25.6493286  15.5882758  42.6578409  24.9336694  15.2679564
  21.7387087  29.9951316   9.3961415  20.9125204  30.2413054   9.2695694
  21.7999078  29.9163397  10.2623473  21.6261253  30.0196265   9.5050359
  33.0795999  16.2098117  18.6868177  33.8249591  16.0207927  18.2731602
  32.6633304  16.7356355  18.1282033  33.1280973  16.2600262  18.5432750
  26.5185916  32.6128197   7.0980445  26.8084214  32.2217178   6.3739671
  27.2489396  32.7944902   7.5385720  26.6692800  32.5822010   7.0563252
  40.4558270  23.5807345  13.6373682  41.0066191  22.9475414  13.8770774
  40.4402385  24.1122738  14.3289186  40.5343466  23.5656293  13.7752540
  27.1080661  27.4145943  18.1833575  26.6092354  28.1261710  18.2618464
  27.9180885  27.7346609  18.1451738  27.1536767  27.5672791  18.1890144
  24.4591831  34.5895579  10.1640594  24.2392127  34.2992934  10.9567262
  24.2386353  33.9310534   9.6358507  24.3939425  34.4495287  10.2029503
  23.3708778  26.6768896  12.4296296  23.0822027  26.0506367  12.9642023
  24.2392126  26.6189183  12.4960977  23.4569030  26.5756440  12.5187251
  34.1586676  21.8203679  12.7478278  33.8151442  21.0994014  13.0985528
  34.2579719  21.6117530  11.9056636  34.1228719  21.6827882  12.6749958
  26.6259787  35.9624969   8.9471287  27.2783845  35.4301411   9.1762313
  25.9285396  35.6093621   9.3339161  26.6190505  35.8314492   9.0383455
  23.5741052  28.3164147   8.3538661  24.3287020  28.6977186   8.5674124
  22.9811664  28.7675290   8.8085358  23.5977765  28.4392974   8.4521540
  34.6199705  28.2829383   8.2902266  35.1857738  28.9422593   8.2060809
  33.9727609  28.6279081   8.7618668  34.6078462  28.4311324   8.3475023
  26.0347719  20.2726987  23.4795874  25.2247494  20.5784767  23.3685716
  26.5122405  20.9932569  23.5948458  25.9851197  20.4241588  23.4802945
  24.8939278  29.4872708  13.7278777  24.3720032  29.6273000  14.4130641
  25.2813299  28.7283372  13.9180894  24.8742979  29.3958232  13.8579853
  31.0906283  31.2268167   7.7139345  30.8492959  30.4936028   7.3066410
  31.2707616  31.7755024   7.0605679  31.0813907  31.1990558   7.5569568
  26.3205604  26.5176727   9.1260268  26.1248387  27.1251462   8.5320571
  26.5439950  25.8244671   8.6451942  26.3240245  26.5054253   8.9676348
  24.7184134  23.4031465   9.2441136  25.4406786  23.5672623   8.7844942
  24.2392127  24.1241130   9.1380476  24.7547865  23.5329695   9.1606750
  32.6777642  19.7395264  14.6237821  31.8388742  19.7656543  14.3876084
  32.7482009  20.3865999  15.2043168  32.5646035  19.8391390  14.6746938
  22.3691751  25.8089537  18.3495276  22.8812848  26.0873791  17.7004036
  22.0828093  26.5478831  18.7158089  22.4026614  25.9591891  18.3085154
  31.1246920  16.6380641   9.3565437  31.8273273  16.4388389   8.8785395
  30.8591109  15.8656583   9.6634280  31.1893552  16.4943607   9.3310878
  36.5535165  24.9463251  11.9099063  36.4669140  25.1018677  12.7633842
  36.0985645  25.5901326  11.5358468  36.4738422  25.0639006  11.9806169
  25.8875476  17.9015926  18.4096317  25.6958673  17.9171060  19.2595741
  26.7374072  18.0979600  18.3862972  25.9851198  17.9330277  18.5319612
  20.2722389  20.4306907  16.3880134  20.1307881  19.5790848  16.5124642
  20.5562952  20.4735568  15.5642340  20.2930235  20.3106657  16.2847758
  30.4260981  22.2673998  10.5324622  30.1795696  22.1869749  11.3661411
  30.7546104  21.4827465  10.3387150  30.4382225  22.1400263  10.6272145
  34.3209030  28.9757357  14.3211403  34.1823390  29.6738403  14.8260146
  33.5409028  28.8206013  13.9647585  34.1852257  29.0557524  14.3437678
  26.3858009  25.0030716  19.9447605  26.5301384  25.5831924  19.3090715
  26.7333657  25.3807013  20.6497460  26.4585470  25.1451420  19.9546600
  28.5577926  24.2020885  17.7272737  27.8101240  24.3951899  17.3221015
  28.7119451  23.3766104  17.4896858  28.4700354  24.1085996  17.6318143
  25.4585764  33.1933488  16.8108632  25.6075327  32.6336404  16.1582037
  26.2385766  33.2725490  17.1941151  25.5959857  33.1219054  16.7705581
  35.8162403  28.3335611   5.0827903  35.4369212  27.5472749   5.0757192
  35.1528648  28.8822468   4.9399547  35.6620878  28.2980435   5.0608700
  27.9839064  33.3648131  18.0893123  27.9082735  32.6956941  18.6443911
  27.9128923  34.0665919  18.6033789  27.9619671  33.3693038  18.2469971
  28.7979703  18.0971435  18.6168141  29.2552317  18.8295410  18.7440933
  28.8736032  17.6737901  19.3755396  28.8770673  18.1428673  18.7469217
  21.0412694  18.3437255  19.7057584  20.5054884  17.7317613  20.0218352
  21.1030459  18.9185391  20.3591251  20.9708327  18.3384183  19.8493011
  33.2707029  11.2761311  12.4861984  33.3890597  11.7337774  11.7529286
  33.0969205  10.4706572  12.1998201  33.2626200  11.2255083  12.3362917
  28.6409311  31.8849130   8.9216729  29.4059202  31.6158774   8.5999393
  28.5387401  31.3999140   9.6386792  28.7390807  31.7738694   8.9796556
  26.6762081  20.0873539  15.4609965  25.8858156  19.9064999  15.7827300
  27.0722704  19.3100492  15.4440259  26.6178957  19.9461000  15.5062513
  32.0605767  27.7215969  13.1869411  31.3850769  27.4901202  13.6882798
  32.0698143  27.1137152  12.5611516  31.9624272  27.5974895  13.1685563
  29.1899911  22.5633798  19.9433464  29.1259052  23.4243755  19.8153600
  29.3297099  22.2465792  19.1429015  29.2015381  22.6433965  19.8061676
  34.0622502  30.5781102   5.4179589  34.1442339  31.3848088   5.0941039
  34.5472244  30.5977061   6.1420362  34.1459660  30.7001764   5.4766487
  27.8719005  25.2565938  14.0849666  27.4481254  25.4570437  13.3488685
  27.6963860  24.4094786  14.1973966  27.7829886  25.1614719  13.9923357
  27.3730699  36.7716451  16.5471124  27.8626629  36.0727240  16.3646788
  26.8014931  36.4740321  17.1347181  27.3615229  36.6242674  16.6072165
  23.1601450  25.7517989   9.5177639  23.3166069  25.6864792  10.3733631
  23.5002043  26.5266542   9.3056319  23.2334685  25.8567187   9.6132233
  29.6980595  25.1275873   8.3871002  30.2396140  24.6246254   8.8509623
  30.0127154  25.0741067   7.5760487  29.8244992  25.0455294   8.3354814
  27.8667044  30.5193224   5.6711030  27.9359865  29.6607763   5.8104031
  28.6455500  30.7365105   5.3430055  27.9919895  30.4246088   5.6428188
  30.8469864  20.0212177  18.4393303  31.0611834  19.3823091  17.8856657
  30.2303763  20.4658001  18.0101164  30.7875193  19.9922321  18.2943734
  32.2574532  32.9430926   9.8847524  31.8654324  32.6397641   9.1670390
  32.4127604  33.7800015   9.6952477  32.2228122  33.0214762   9.7504021
  33.0108952  21.6301242  19.3776610  32.1985634  21.3227133  19.4589782
  33.4698887  21.1500243  19.9419322  32.9589337  21.5137735  19.4731204
  32.4214207  29.5080914   9.8253554  32.0628862  29.6795557  10.6017587
  31.9352918  29.9694120   9.2681553  32.2972904  29.6019885   9.8578823
  30.2384593  13.1312113  13.4280645  29.3678151  13.1050834  13.3813955
  30.4924934  12.9589305  12.6106491  30.1478153  13.1022257  13.3000782
  30.1062460  23.0361314  24.1605312  30.5762091  23.6603430  24.5473186
  30.1524340  22.3678289  24.7198527  30.1830335  23.0295994  24.3005383
  27.2633733  15.1418341  14.8854116  26.7472222  14.4498533  15.0105695
  26.7027662  15.8089118  14.8316715  27.1040247  15.1381599  14.8960182
  29.3325967  15.6811301  16.7146968  28.9457720  15.7060333  17.4960498
  28.8458904  15.1152980  16.2621485  29.2038476  15.6007052  16.7634872
  35.3075946  22.2473956  15.3386671  34.8803554  22.1600305  14.5834770
  34.6701999  22.3551732  15.9241515  35.1505554  22.2506616  15.3132112
  28.9983108  12.5678287  19.0057228  29.6276226  13.1038587  18.7278299
  29.1668971  12.4755646  19.8570794  29.1160903  12.6339649  19.0905756
  28.7997023  17.3549482  21.2783640  29.6270453  17.0834630  21.3342254
  28.8204869  18.1510323  21.6347458  28.9249873  17.4329236  21.3398823
  33.6373203  31.0904619  17.4126112  34.4265581  30.7393683  17.5328193
  33.8116801  31.9041007  17.1502746  33.7793484  31.1590476  17.3913980
  23.3766513  24.5013344  14.4653901  22.5354520  24.4017219  14.6732794
  23.5856521  25.2708825  14.8168221  23.2831206  24.6005388  14.5481215
  20.8542080  22.1232881  12.2938651  20.4598778  22.1975893  11.5188761
  20.2982197  22.5090828  12.8447013  20.7144892  22.1914656  12.2606311
  32.4907027  15.1014175  11.9742530  32.6956620  15.0336483  12.8199527
  32.1633451  15.9072997  11.9063708  32.4722275  15.2100116  12.0902185
  27.1883178  22.4294744  13.7151498  26.8846316  21.8750732  14.3161906
  26.4862599  22.6086954  13.2279532  27.0399388  22.3739526  13.7321204
  25.2501529  29.6444464  18.4223596  25.1421884  29.6546526  19.2885654
  25.4597311  30.4699245  18.2328550  25.2651640  29.7685539  18.5227687
  35.7440715  15.6545940  11.4545296  35.1315028  16.1416342  11.8399027
  35.8404890  14.9789430  11.9982947  35.6678612  15.6264248  11.5924154
  23.2675321  26.8957107  15.8845533  22.6763254  27.5366605  15.8548549
  24.0296345  27.3194724  15.8576833  23.2923582  27.0532945  15.8760681
  23.6635944  18.0559104  16.5513551  24.1237425  18.1298034  17.2888675
  23.7092051  18.8540358  16.2013372  23.7386499  18.1853251  16.6086308
  25.3119294  18.7225799  21.1185578  24.9204859  18.0759146  21.5541356
  25.4805156  19.3137235  21.7379834  25.2790204  18.7140067  21.2748284
  39.3865743  26.7262876  16.8822812  39.4448866  27.1749525  17.6282788
  38.7532210  27.1361689  16.4452892  39.3017038  26.8536611  16.9275360
  33.0264837  32.3466418  13.3177558  32.8284526  32.8357233  12.6233769
  32.4052548  32.5507660  13.8961691  32.9052402  32.4482956  13.3000781
  27.0872816  24.1151315   7.6587802  27.8314861  24.5025591   7.8970752
  27.2333512  23.2708740   7.8228290  27.2183401  24.0481788   7.7181772
  29.0052391  15.9101574  12.6919664  28.1588436  16.0824382  12.5661013
  29.0023524  15.1050918  13.0285492  28.8799541  15.8162603  12.7230791
  30.0750692  19.6876788  13.5581722  29.6010646  19.1618550  14.0687032
  30.4468827  19.1406261  12.9896583  30.0600580  19.5292785  13.5496869
  20.4523722  21.6848295  18.9265267  21.3149335  21.5844004  18.8402597
  20.1215505  21.1043004  18.3650839  20.5308918  21.5839922  18.8310673
  36.3387422  24.7479164  14.9688502  36.0985645  23.9085579  14.9730928
  36.8179429  24.8279331  15.6929276  36.3739606  24.6360564  15.0763304
  38.3392609  21.5280621  12.9217761  38.1002379  21.4876455  12.0838546
  38.5026510  22.3751773  13.0483482  38.3282913  21.6472706  12.8171243
  34.9438639  25.9130571  18.8522806  35.6672838  25.4603097  18.6733826
  34.6788602  26.1935236  18.0695134  35.0119913  25.8881539  18.7101522
  23.8125508  20.5090744  15.5875685  23.1878578  20.5209136  14.9801638
  23.4771102  20.9850919  16.2366926  23.6710999  20.5809261  15.5932254
  20.5251183  28.5691204  17.0279450  19.9951108  27.8783643  17.0774425
  20.7976276  28.5601389  16.1992158  20.4875905  28.4658336  16.9126866
  31.5571274  29.1516907   5.7517132  32.2805473  29.6175020   5.6081706
  31.1171865  29.2190516   5.0014729  31.5986966  29.2300743   5.6201914
  30.7257429  26.0114449  17.0017821  30.1114422  25.4672499  17.2966457
  31.2424714  25.4978685  16.5223638  30.7113091  25.8550858  16.9742050
  29.9653726  27.0818719  14.7362120  29.5381334  26.4568437  14.3027555
  29.9578670  26.7993641  15.5621127  29.9012867  26.9471499  14.7941948
  23.0816253  22.1183892  17.8050554  23.2409740  21.3627216  18.2102276
  22.9009147  22.6674831  18.4591292  23.0781612  22.0877706  17.9613260
  31.0236556  14.2845127  18.3601343  30.5277117  14.4808802  17.6692910
  31.7805618  14.6837796  18.1890145  31.0623381  14.3722861  18.2321480
  28.2939436  17.9587473  14.9504654  28.3181923  17.4247586  14.2617434
  28.5450909  17.4504782  15.6130245  28.3349354  17.8048377  14.9469299
  15.8047025  25.2418968  14.3847798  15.6990474  25.1965813  13.5199882
  15.0547245  25.5872749  14.6662083  15.6782628  25.2859876  14.2985128
  24.5740758  16.6858292  14.3310398  24.6139129  17.1867498  15.0445106
  23.7490422  16.7768685  14.0616321  24.4580284  16.7740108  14.3960937
  26.7570371  26.2519032  22.4330693  25.9066001  26.3890746  22.5688338
  26.9198498  25.5182810  22.8778395  26.6554234  26.1633133  22.5186292
  25.9955121  23.2018801  16.6284297  25.1647051  23.3692619  16.4219545
  25.9406638  22.8254752  17.4133183  25.8644536  23.1708533  16.7132825
  23.8038904  16.6927694  22.2640708  24.4291608  16.1489827  22.5370140
  23.3489384  16.2122612  21.6948498  23.8287165  16.5417176  22.2202302
  37.3773953  24.8756981  17.3553356  37.9691793  25.5154232  17.3871554
  37.8132948  24.1780018  17.6445423  37.5292384  24.8675332  17.4034189
  29.2067343  29.2974354  17.9811250  28.6992434  29.8510201  18.4251880
  28.9093989  29.3582644  17.1630024  29.0872228  29.3880665  17.9259707
  31.3729525  17.6627673  16.8235913  31.7984597  17.2100200  16.2119439
  30.7586518  17.1087744  17.1000700  31.3458171  17.5141650  16.7740938
  31.8175123  33.2137611   5.9115193  31.1004433  33.0398474   5.4462431
  32.4681861  32.9790184   5.3790679  31.8076974  33.1533404   5.7644411
  28.4509828  34.2298912  14.8868257  28.2275483  33.4717741  15.2552283
  27.9619672  34.2596933  14.1648697  28.3453277  34.1221136  14.8344998
  34.5651222  18.5458084  12.5646872  34.9178832  18.1187807  13.2392670
  33.7066024  18.4608927  12.6947948  34.4900667  18.4702824  12.6841882
  23.2634907  21.1765603  10.6229718  22.5446896  21.5929736  10.8902582
  23.6347269  21.7419842  10.0721356  23.2126839  21.3214885  10.5812525
  32.5634488  21.8093452  16.5131714  32.5432415  21.6276747  17.3666493
  32.6113689  22.6805471  16.4891298  32.5669129  21.9109990  16.6355009
  30.5080818  28.3980644  22.4380191  30.4676673  27.7530321  21.8525346
  31.3204136  28.3417262  22.7505603  30.6223971  28.2939611  22.3977140
  27.0988285  34.4499370  12.3405341  26.6848684  33.7873500  11.9509183
  27.7835659  34.5977229  11.8201036  27.1386657  34.3740028  12.2061839
  30.4653579  33.6089455  13.0928958  30.0669863  33.7191726  12.3249778
  29.8504799  33.8171522  13.6755518  30.3152469  33.6563023  13.0660257
  35.9975282  13.6676495  13.4931184  35.4906147  12.9605635  13.4252362
  36.7942716  13.3369684  13.6232261  36.0402521  13.5149647  13.5030179
  31.9139298  20.1743108   9.3904848  31.6852991  20.1975809   8.5483206
  32.1737374  19.3500575   9.5099859  31.9185486  20.0559188   9.2830046
  26.1958526  22.0277581  18.9929948  25.6837429  21.4198764  19.3514980
  26.0238023  22.7434173  19.4603924  26.0948163  22.0440880  19.1146172
  21.0424241  20.4715156  21.6432310  20.8726831  21.1316531  21.0980517
  20.5990191  20.6821717  22.3644799  20.9523575  20.6001138  21.6693939
  24.9684060  18.7119654  10.6859044  25.4441427  19.0736734  10.0509225
  24.4672660  19.3676122  10.9659186  24.9649419  18.8613843  10.6335785
  38.1995422  28.1841422   6.4772049  38.5829028  28.9332778   6.7070146
  37.4039535  28.4307242   6.2184038  38.1389204  28.3311116   6.4729622
  30.0727597  19.9501825  21.4332204  30.6299027  19.7215635  20.8010669
  29.7488662  20.7107491  21.1567416  30.1074007  20.0285662  21.2988701
  17.9426306  23.3762022  16.9020800  17.3953025  22.7062667  17.0201668
  18.7318684  23.0091869  16.9664267  17.9778489  23.2227008  16.9289500
  27.7910714  23.0369479  22.3984211  28.5422041  23.3521156  22.7123765
  27.9833290  22.8348650  21.5718133  27.9302128  23.0536860  22.3227607
  16.7013275  22.5882829  14.0566823  16.5235036  22.1359438  14.7821738
  16.4132297  23.3908991  14.2405300  16.6326228  22.6405387  14.1910326
  32.3636856  23.8440547  13.2944213  32.8590522  23.1263542  13.2548233
  31.5536632  23.5411344  13.1798700  32.3180749  23.6938193  13.2717939
  27.8095468  27.6938360   5.4441218  27.0006790  27.3705034   5.3974527
  28.3170377  26.9871582   5.3769466  27.7645135  27.5419676   5.4271512
  18.4385745  25.1210553  11.1688582  17.5731264  25.1096244  11.0571353
  18.5384561  24.9340776  12.0159721  18.3259912  25.0916614  11.2777526
  34.4288675  26.5944234  15.9821342  34.8543747  26.0718656  15.4291767
  34.0645595  27.1925072  15.4609965  34.4375278  26.6054461  15.8230352
  24.0642755  34.8908452  14.7418687  24.3789314  35.7044840  14.7496469
  24.4736168  34.5058670  15.4100847  24.1710853  34.9537154  14.8422779
  31.0167275  30.3078499  12.3122499  31.4878453  31.0218761  12.4812485
  31.3527453  29.7077249  12.8482369  31.1362390  30.3249963  12.4154875
  27.9336769  15.0805969  19.2680594  28.0664675  14.2836963  19.5961570
  28.3181922  15.6072372  19.8478870  28.0093098  15.0405886  19.4024097
  31.6541221  30.0996433  19.0750192  31.1062167  29.4754316  18.8070257
  32.1154250  30.2890705  18.3594271  31.6408430  30.0355483  18.9300623
  31.0069125  12.0036295  15.8661687  30.2015088  11.8934025  16.1829526
  30.8775860  12.1048751  15.0091553  30.8689257  12.0019965  15.7869728
  34.4635085  18.1681787  16.4601384  33.8798074  18.6690994  16.0478952
  34.7839379  17.6611343  15.8265708  34.4248261  18.1673622  16.3059892
  25.5925216  15.0765144  17.5158488  26.1369629  14.7356271  18.1062830
  25.6462152  15.9350606  17.6579773  25.6814336  15.1520404  17.6240361
  21.4055775  28.8381560  14.3897296  22.0100632  28.7977394  13.7611117
  21.1983088  29.6852712  14.4201352  21.4644672  28.9569563  14.3013412
  31.2199547  31.1047505  15.6059533  32.0397921  30.9610471  15.8675828
  30.9393625  31.7293704  16.1475971  31.2996291  31.1757857  15.7247473
  16.6407057  27.8216178  14.2596219  16.5431335  27.0112449  14.5686276
  17.4235927  27.8007971  13.8742487  16.7423194  27.6983268  14.2483082
  47.6913198  38.7612357   8.5702410  47.6607202  39.6156994   8.7420679
  48.2894546  38.4607650   9.1288553  47.7750355  38.8428854   8.6777212
  40.8912882  37.8488008  13.3255340  40.0350778  38.0096506  13.3764457
  40.9380536  36.9780072  13.3460401  40.7711994  37.7438810  13.3361406
  35.2754022  47.3850726   9.0892572  34.5236922  47.0066264   8.8608617
  35.7240034  47.4169160   8.3411382  35.2303689  47.3336333   8.9450074
  40.7278982  47.8076095   4.5178119  40.3930350  48.4853017   4.0822341
  41.2405852  47.4181407   3.9294990  40.7544563  47.8500674   4.3664910
  40.2683273  49.7590364  10.4589230  40.6522653  50.3277263   9.9194006
  40.2042414  49.0339874   9.9795046  40.3156700  49.7365828  10.3083093
  43.7364703  39.9080052  15.9686992  44.2820663  40.5865139  16.0280961
  43.6781580  39.7667513  15.1088573  43.8080618  39.9872054  15.8499052
  36.8538778  47.3969118  11.3555344  36.9549141  46.5869472  11.6652472
  36.2580524  47.3026065  10.7255023  36.7811317  47.2634146  11.3081583
  45.5129772  41.3364659   6.8420719  45.3969298  42.0872345   7.2712858
  46.3085659  41.0788612   7.0916806  45.6134361  41.4099506   6.9424811
  36.6939518  52.3146707  12.7570200  37.3376973  52.7559871  13.1466359
  37.0195773  51.5100133  12.6700459  36.8371347  52.2611902  12.8015677
  30.0503823  43.4189405  10.9807678  29.8154007  42.5857057  10.8739947
  30.1889463  43.6994070  10.1668879  30.0359485  43.3372908  10.8450033
  32.3493910  35.5875135  13.8791985  31.7298942  34.9967783  13.7102000
  32.2477774  36.1786571  13.2456309  32.2431586  35.5879218  13.7596975
  37.3960098  45.3258682   8.1290062  37.7175939  45.8663889   7.5251370
  38.0432194  44.7555454   8.2612352  37.5386153  45.3217857   8.0597097
  39.4461806  37.3274677   8.2124449  40.1441970  37.5062805   8.7045912
  39.7614138  36.8045016   7.5894838  39.5957143  37.2768449   8.1926459
  32.0763043  39.1327417  16.1235554  31.9521740  39.7189863  16.7585373
  32.7281328  38.6387613  16.4247829  32.1536692  39.1466221  16.2621484
  39.6349741  43.7145122   8.2004240  40.0743377  43.1062223   8.6459013
  39.4854404  43.3352495   7.4289705  39.6771207  43.5683593   8.1523407
  37.1021384  42.3089134  15.4023066  37.7470387  41.8161577  15.0834014
  37.3423161  42.4513921  16.2289144  37.2331969  42.2566576  15.4772599
  39.6407475  45.1544040  15.0529958  39.9230718  44.3595446  14.8316714
  40.3693636  45.6324627  15.0735019  39.7897039  45.1078637  15.0232973
  37.6188669  32.6967074  12.2945723  37.2891999  33.1478217  11.6249422
  36.9433671  32.6183237  12.8418730  37.4699106  32.7518209  12.2768946
  43.2359078  42.0672303   5.1535009  43.1510373  42.9233270   5.2984578
  43.7243461  41.7916627   5.8217168  43.2947975  42.1529625   5.2737091
  44.8265077  28.6852597  10.5395334  44.5118518  29.3756075  10.9715756
  44.3092019  28.6297379   9.8380835  44.7029547  28.7787485  10.4992283
  44.1677511  38.6857098   6.6532744  43.6388982  38.9016731   7.3130051
  44.6902531  39.3793236   6.5733714  44.1665964  38.8200234   6.7388344
  49.6225564  44.2603402  12.0265789  48.7923267  44.4714046  12.1899205
  49.5734816  43.4340457  11.7508072  49.4932299  44.1693008  12.0103154
  36.0577119  42.5820314   5.4540212  35.4734334  43.0870346   5.8606076
  35.6547214  42.3562701   4.7136804  35.9116422  42.6228563   5.4045238
  31.6121147  48.2975075  12.2563884  31.1288725  49.0225565  12.2323468
  32.4244465  48.5951206  12.3674042  31.6611895  48.4477429  12.2691163
  37.6835301  47.0907256  14.8613698  37.1662243  46.7314671  14.2575006
  38.3809693  46.5669431  14.8719764  37.7100882  46.9604944  14.7743957
  38.9069353  46.8233230  19.8047534  38.3440188  46.4105840  20.3287195
  39.6690377  46.7486136  20.2240677  38.9363802  46.7510631  19.9440534
  40.5154333  38.8285966   3.9309133  40.7550337  39.0363950   3.1184476
  40.8370174  38.0243475   4.0398077  40.5991491  38.7400068   3.8269686
  35.8244623  30.7579362   7.7768671  36.5790591  31.1257679   7.5385721
  35.6472158  31.1318917   8.5447850  35.9099102  30.8677550   7.8553559
  34.4665345  48.8131251  12.4084164  35.1685924  48.2983240  12.4656920
  34.3862828  49.1405403  13.2131039  34.5589105  48.7845478  12.5356956
  49.1179522  36.9073803  15.8216210  48.2807943  36.9775990  16.0563805
  49.0867753  36.9098298  14.9490513  48.9897804  36.9184030  15.7275758
  35.5144251  39.0506838  21.5364579  35.6864755  38.9412733  22.3849860
  36.0513609  39.6961244  21.2995771  35.6189255  39.1298840  21.6269676
  34.1801688  33.1649681   4.4746784  33.9977261  33.3821562   3.6487777
  35.0427301  33.2788694   4.5305398  34.2806277  33.2139579   4.3601271
  33.7916120  45.0037603  11.9169772  34.6305019  45.2360536  11.9643533
  33.8227889  44.1341915  11.8476807  33.9197837  44.9094550  11.9134416
  34.4168823  45.4238479  16.2183077  34.9567048  45.2809610  16.8886450
  33.7338769  45.8235229  16.5867104  34.3960977  45.4618150  16.3717499
  39.8601407  30.1676092   7.5095808  40.5887568  29.9892047   7.0633964
  39.9496300  31.0094172   7.7202986  39.9808069  30.2659970   7.4749325
  43.8409708  41.1029479  11.4128102  44.5967223  41.5360994  11.4517010
  43.9472032  40.4534249  11.9862738  43.9679878  41.0706963  11.5026127
  46.8789879  44.9302756  12.1630505  46.4425111  44.9339499  12.9189476
  46.5452794  45.6108255  11.7310082  46.7652499  45.0315212  12.2111337
  29.8205968  41.6438769  16.3717499  29.5544383  40.8277886  16.5308489
  29.8344532  41.6891925  15.5013014  29.7830690  41.5295674  16.2670981
  46.7987362  31.9716584  14.4059933  47.4413270  32.0414689  14.9921848
  47.0510383  31.3045807  13.9039475  46.9309494  31.8842933  14.4187212
  33.7263715  36.4423854   2.9869257  33.0121892  36.1562033   3.3991689
  34.2107684  36.7820480   3.6275644  33.6923078  36.4505503   3.1424892
  34.5704574  35.1817148  19.0184507  33.8776371  34.7114127  19.2645238
  35.1864902  34.9555452  19.5926214  34.5589104  35.0784280  19.1393659
  41.6089346  48.8821191  17.1340111  40.8104592  48.6420691  17.3913979
  42.0575357  48.9335584  17.8807158  41.5563957  48.8543583  17.2825035
  50.0134225  41.6483676  11.0550142  50.6750659  41.0874345  10.9546050
  49.3725637  41.1535707  11.3802833  50.0163093  41.4920085  11.0882482
  40.9011033  44.9453808   3.3631065  41.3162181  44.6138832   2.6715561
  40.0702962  44.7122710   3.2351202  40.8399042  44.8625064   3.2421913
  30.2299382  42.4297549  13.6529243  30.0474955  42.4044435  12.8001535
  30.9649051  42.8996487  13.6918152  30.3113446  42.4958911  13.5327162
  46.2999056  42.6649059  10.7962131  46.5354645  42.8094258   9.9688981
  46.4488619  43.4291467  11.1893644  46.3564859  42.7988113  10.7325735
  33.2945133  39.1482552  20.1611352  34.0185106  39.1335582  20.6476246
  33.3961270  39.8577907  19.6633320  33.4163342  39.2507255  20.1590139
  48.1289513  41.5050725   8.6331734  48.4597730  42.0378365   8.0271829
  48.7022601  41.5589612   9.2893685  48.2623192  41.5920294   8.6409516
  43.3421402  39.3515627   9.3155315  43.4368256  40.0904921   9.7694940
  42.7180245  38.9233103   9.7489879  43.2630432  39.3976948   9.4463462
  41.5973876  42.5301840  19.9645595  42.1712737  41.8929084  20.1194159
  41.5188679  42.5305922  19.0955253  41.6707110  42.4366951  19.8592006
  30.1970292  39.3091049  13.8028310  30.7743795  39.1727500  14.4420555
  29.4984354  38.8526834  14.0573894  30.1791313  39.2213316  13.9350599
  43.5944423  41.1964367   2.5492267  43.5124586  41.2666554   3.4147254
  44.2324143  41.7594111   2.3576007  43.6764260  41.2903338   2.6482216
  36.9537594  40.9625105  12.0166793  36.6956838  40.1296840  11.9898092
  37.0086077  41.1882718  11.1759293  36.9237372  40.8722876  11.8886930
  42.0338644  33.0653556  12.1170886  41.3294971  32.5762741  12.2754805
  42.0823619  33.0776030  11.2459330  41.9368696  32.9943204  12.0110225
  35.9272306  38.5162868  12.5031688  35.3521898  38.6755036  13.1395649
  35.5507983  37.8798277  12.0400138  35.7875119  38.4460681  12.5286246
  39.5945595  36.9886217  17.3624066  39.2060028  36.5640435  16.7076257
  38.9300293  37.2368367  17.8701093  39.4392523  36.9624938  17.3411934
  49.2368864  36.7461222  10.1371896  48.9805429  35.9341163   9.9469779
  50.0798178  36.7538789   9.9102083  49.3234889  36.6273219  10.0756713
  25.6729125  38.1602942  10.5176128  25.7589377  37.7834811  11.2989658
  26.3004923  37.7863388  10.0396087  25.7785676  38.0488425  10.5621606
  43.4171956  30.6860846  14.8748050  43.7982468  30.0039017  15.2615924
  42.6135241  30.3970448  14.6923715  43.3548418  30.5427894  14.9052106
  40.6984533  41.2184821   5.5600873  41.5125172  41.5099714   5.4483644
  40.6343674  40.5644684   4.9859166  40.8087272  41.1650016   5.4589710
  46.9194023  43.9010818  19.9730449  46.6832661  43.0698882  19.8542509
  47.5637252  43.8496425  20.5585293  46.9788694  43.7708506  20.0416342
  36.5692441  44.6906339  10.6873185  37.2066388  44.4518086  11.2324978
  36.9947513  44.8943498   9.9526346  36.7268608  44.6857349  10.6590342
  31.2605084  46.9294675  14.5707489  31.3009229  47.2009527  13.7427268
  31.8199608  47.4536584  14.9865277  31.3488430  47.0470431  14.5099377
  37.2095256  39.9108629   5.0248074  37.5940409  39.6916335   5.7764620
  36.9606877  40.7371574   5.1549151  37.2297329  40.0006775   5.1549151
  47.9430444  43.6855266  16.0358743  47.6376261  44.4183323  16.3972059
  47.2236660  43.2793196  15.7551529  47.7917786  43.7336999  16.0471880
  38.9513913  45.1678762  12.3666971  39.0252922  45.0053933  13.2208821
  39.7683420  45.3568951  12.1227453  39.0830272  45.1715504  12.4564997
  53.6432236  40.3248267  15.3627087  53.5756736  40.3444226  14.4929674
  53.6287899  41.1678594  15.5882758  53.6310993  40.4522002  15.2679564
  32.7119670  45.5136624   9.3961415  31.8857788  45.7598362   9.2695694
  32.7731661  45.4348705  10.2623473  32.5993837  45.5381573   9.5050359
  34.9295694  31.5805565  10.3556855  34.0618119  31.6528165  10.4214464
  35.2170898  32.3827644  10.5444830  34.8435442  31.7099712  10.3931622
  44.0528583  31.7283425  18.6868177  44.7982175  31.5393235  18.2731602
  43.6365887  32.2541663  18.1282033  44.1013557  31.7785570  18.5432750
  37.4918499  48.1313505   7.0980445  37.7816798  47.7402486   6.3739671
  38.2221980  48.3130210   7.5385720  37.6425383  48.1007318   7.0563252
  51.4290853  39.0992653  13.6373682  51.9798775  38.4660722  13.8770774
  51.4134969  39.6308046  14.3289186  51.5076050  39.0841601  13.7752540
  38.0813244  42.9331251  18.1833575  37.5824938  43.6447018  18.2618464
  38.8913469  43.2531917  18.1451738  38.1269351  43.0858099  18.1890144
  35.4324415  50.1080887  10.1640594  35.2124710  49.8178242  10.9567262
  35.2118937  49.4495842   9.6358507  35.3672009  49.9680595  10.2029503
  34.3441362  42.1954204  12.4296296  34.0554611  41.5691675  12.9642023
  35.2124710  42.1374491  12.4960977  34.4301614  42.0941748  12.5187251
  45.1319260  37.3388987  12.7478278  44.7884026  36.6179322  13.0985528
  45.2312302  37.1302838  11.9056636  45.0961303  37.2013190  12.6749958
  37.5992370  51.4810277   8.9471287  38.2516428  50.9486719   9.1762313
  36.9017979  51.1278929   9.3339161  37.5923088  51.3499800   9.0383455
  34.5473635  43.8349455   8.3538661  35.3019603  44.2162494   8.5674124
  33.9544248  44.2860598   8.8085358  34.5710349  43.9578282   8.4521540
  45.5932289  43.8014691   8.2902266  46.1590321  44.4607901   8.2060809
  44.9460192  44.1464389   8.7618668  45.5811045  43.9496632   8.3475023
  37.0080302  35.7912295  23.4795874  36.1980078  36.0970075  23.3685716
  37.4854989  36.5117877  23.5948458  36.9583781  35.9426896  23.4802945
  35.8671862  45.0058016  13.7278777  35.3452615  45.1458308  14.4130641
  36.2545882  44.2468680  13.9180894  35.8475563  44.9143540  13.8579853
  32.8563046  35.0563825   7.7973731  32.5687842  34.6865095   7.0605679
  33.5433514  35.5258680   7.5357436  32.9151943  35.0710794   7.6488807
  42.0638867  46.7453475   7.7139345  41.8225543  46.0121336   7.3066410
  42.2440200  47.2940332   7.0605679  42.0546491  46.7175866   7.5569568
  37.2938187  42.0362035   9.1260268  37.0980970  42.6436769   8.5320571
  37.5172533  41.3429979   8.6451942  37.2972829  42.0239560   8.9676348
  35.6916718  38.9216773   9.2441136  36.4139369  39.0857931   8.7844942
  35.2124710  39.6426438   9.1380476  35.7280448  39.0515002   9.1606750
  43.6510225  35.2580572  14.6237821  42.8121326  35.2841851  14.3876084
  43.7214592  35.9051307  15.2043168  43.5378619  35.3576698  14.6746938
  33.3424334  41.3274845  18.3495276  33.8545431  41.6059099  17.7004036
  33.0560677  42.0664139  18.7158089  33.3759197  41.4777199  18.3085154
  42.0979503  32.1565949   9.3565437  42.8005856  31.9573697   8.8785395
  41.8323692  31.3841891   9.6634280  42.1626136  32.0128915   9.3310878
  47.5267749  40.4648558  11.9099063  47.4401723  40.6203985  12.7633842
  47.0718229  41.1086634  11.5358468  47.4471006  40.5824314  11.9806169
  30.4291241  35.8345037   8.6459012  30.5307377  36.6371199   8.9739988
  31.2247127  35.6332373   8.3482093  30.5619146  35.9230936   8.6494368
  36.8608060  33.4201234  18.4096317  36.6691257  33.4356368  19.2595741
  37.7106656  33.6164908  18.3862972  36.9583782  33.4515585  18.5319612
  31.2454973  35.9492215  16.3880134  31.1040464  35.0976156  16.5124642
  31.5295536  35.9920876  15.5642340  31.2662819  35.8291965  16.2847758
  41.3993565  37.7859306  10.5324622  41.1528279  37.7055056  11.3661411
  41.7278688  37.0012773  10.3387150  41.4114809  37.6585571  10.6272145
  45.2941614  44.4942665  14.3211403  45.1555973  45.1923711  14.8260146
  44.5141612  44.3391321  13.9647585  45.1584841  44.5742832  14.3437678
  43.6319699  40.7939040  20.5733785  43.6267737  39.9218857  20.5776212
  44.3380693  40.9927209  20.1003241  43.7364703  40.6942914  20.5040821
  37.3590592  40.5216024  19.9447605  37.5033968  41.1017232  19.3090715
  37.7066241  40.8992321  20.6497460  37.4318054  40.6636728  19.9546600
  39.5310510  39.7206193  17.7272737  38.7833824  39.9137207  17.3221015
  39.6852035  38.8951412  17.4896858  39.4432937  39.6271304  17.6318143
  36.4318347  48.7118796  16.8108632  36.5807911  48.1521712  16.1582037
  37.2118349  48.7910798  17.1941151  36.5692441  48.6404361  16.7705581
  46.7894987  43.8520919   5.0827903  46.4101795  43.0658057   5.0757192
  46.1261232  44.4007776   4.9399547  46.6353461  43.8165743   5.0608700
  38.9571648  48.8833439  18.0893123  38.8815319  48.2142249  18.6443911
  38.8861507  49.5851227  18.6033789  38.9352255  48.8878346  18.2469971
  39.7712287  33.6156743  18.6168141  40.2284901  34.3480718  18.7440933
  39.8468615  33.1923208  19.3755396  39.8503257  33.6613981  18.7469217
  32.0145278  33.8622563  19.7057584  31.4787467  33.2502921  20.0218352
  32.0763043  34.4370699  20.3591251  31.9440911  33.8569491  19.8493011
  44.2439613  26.7946618  12.4861984  44.3623181  27.2523082  11.7529286
  44.0701788  25.9891880  12.1998201  44.2358784  26.7440391  12.3362917
  39.6141895  47.4034438   8.9216729  40.3791786  47.1344081   8.5999393
  39.5119985  46.9184448   9.6386792  39.7123390  47.2924002   8.9796556
  37.6494665  35.6058847  15.4609965  36.8590739  35.4250307  15.7827300
  38.0455287  34.8285800  15.4440259  37.5911541  35.4646308  15.5062513
  42.1360555  44.4346621   0.9016678  42.9033540  44.4946746   0.4922530
  41.6891864  43.8627063   0.4172997  42.1833983  44.3583197   0.7694389
  43.0338351  43.2401277  13.1869411  42.3583353  43.0086510  13.6882798
  43.0430727  42.6322460  12.5611516  42.9356855  43.1160203  13.1685563
  40.1632495  38.0819106  19.9433464  40.0991636  38.9429063  19.8153600
  40.3029683  37.7651099  19.1429015  40.1747965  38.1619273  19.8061676
  45.0355085  46.0966410   5.4179589  45.1174923  46.9033396   5.0941039
  45.5204828  46.1162369   6.1420362  45.1192243  46.2187072   5.4766487
  38.8451589  40.7751246  14.0849666  38.4213838  40.9755745  13.3488685
  38.6696444  39.9280094  14.1973966  38.7562469  40.6800027  13.9923357
  34.1334034  41.2703297   9.5177639  34.2898653  41.2050100  10.3733631
  34.4734627  42.0451850   9.3056319  34.2067269  41.3752495   9.6132233
  40.6713178  40.6461181   8.3871002  41.2128724  40.1431562   8.8509623
  40.9859737  40.5926375   7.5760487  40.7977575  40.5640602   8.3354814
  38.8399628  46.0378532   5.6711030  38.9092448  45.1793071   5.8104031
  39.6188083  46.2550413   5.3430055  38.9652478  45.9431396   5.6428188
  41.8202448  35.5397485  18.4393303  42.0344417  34.9008399  17.8856657
  41.2036347  35.9843309  18.0101164  41.7607777  35.5107629  18.2943734
  43.2307116  48.4616233   9.8847524  42.8386907  48.1582949   9.1670390
  43.3860188  49.2985323   9.6952477  43.1960705  48.5400070   9.7504021
  43.9841536  37.1486550  19.3776610  43.1718217  36.8412441  19.4589782
  44.4431470  36.6685550  19.9419322  43.9321920  37.0323043  19.4731204
  43.3946790  45.0266222   9.8253554  43.0361445  45.1980865  10.6017587
  42.9085501  45.4879428   9.2681553  43.2705487  45.1205193   9.8578823
  41.2117176  28.6497421  13.4280645  40.3410734  28.6236142  13.3813955
  41.4657518  28.4774613  12.6106491  41.1210736  28.6207565  13.3000782
  38.1835156  40.7065388   2.3653788  38.4727681  41.4830270   2.6397363
  38.2706955  40.1954119   3.0668288  38.2389412  40.7457306   2.5096286
  38.2366317  30.6603649  14.8854116  37.7204805  29.9683841  15.0105695
  37.6760246  31.3274426  14.8316715  38.0772830  30.6566907  14.8960182
  40.3058550  31.1996609  16.7146968  39.9190303  31.2245641  17.4960498
  39.8191488  30.6338288  16.2621485  40.1771059  31.1192360  16.7634872
  46.2808530  37.7659264  15.3386671  45.8536138  37.6785613  14.5834770
  45.6434583  37.8737040  15.9241515  46.1238137  37.7691924  15.3132112
  39.9715692  28.0863595  19.0057228  40.6008810  28.6223895  18.7278299
  40.1401555  27.9940954  19.8570794  40.0893487  28.1524957  19.0905756
  39.7729607  32.8734789  21.2783640  40.6003036  32.6019938  21.3342254
  39.7937453  33.6695631  21.6347458  39.8982457  32.9514544  21.3398823
  44.6105786  46.6089927  17.4126112  45.3998164  46.2578991  17.5328193
  44.7849384  47.4226315  17.1502746  44.7526068  46.6775784  17.3913980
  34.3499097  40.0198652  14.4653901  33.5087103  39.9202526  14.6732794
  34.5589105  40.7894133  14.8168221  34.2563789  40.1190696  14.5481215
  31.8274664  37.6418189  12.2938651  31.4331361  37.7161201  11.5188761
  31.2714781  38.0276136  12.8447013  31.6877476  37.7099964  12.2606311
  43.4639610  30.6199483  11.9742530  43.6689204  30.5521791  12.8199527
  43.1366034  31.4258304  11.9063708  43.4454858  30.7285424  12.0902185
  38.1615762  37.9480051  13.7151498  37.8578899  37.3936040  14.3161906
  37.4595182  38.1272261  13.2279532  38.0131971  37.8924834  13.7321204
  37.2181859  35.2580571   8.2796200  37.4941593  34.5399484   7.8673767
  37.8180528  35.8565491   8.0717306  37.3475123  35.2400942   8.1876961
  36.2234113  45.1629772  18.4223596  36.1154468  45.1731834  19.2885654
  36.4329894  45.9884553  18.2328550  36.2384224  45.2870847  18.5227687
  46.7173298  31.1731248  11.4545296  46.1047612  31.6601650  11.8399027
  46.8137473  30.4974738  11.9982947  46.6411196  31.1449556  11.5924154
  40.7192379  32.9294089   6.5542795  41.1736126  33.1004649   7.2790639
  41.1932425  32.3162199   6.1540571  40.8560699  32.8644974   6.6016557
  34.2407905  42.4142415  15.8845533  33.6495838  43.0551913  15.8548549
  35.0028928  42.8380032  15.8576833  34.2656165  42.5718253  15.8760681
  34.6368527  33.5744412  16.5513551  35.0970009  33.6483342  17.2888675
  34.6824634  34.3725666  16.2013372  34.7119083  33.7038559  16.6086308
  36.2851877  34.2411107  21.1185578  35.8937442  33.5944454  21.5541356
  36.4537740  34.8322542  21.7379834  36.2522787  34.2325375  21.2748284
  50.3598326  42.2448184  16.8822812  50.4181450  42.6934833  17.6282788
  49.7264794  42.6546997  16.4452892  50.2749621  42.3721919  16.9275360
  43.9997421  47.8651726  13.3177558  43.8017110  48.3542541  12.6233769
  43.3785132  48.0692968  13.8961691  43.8784985  47.9668264  13.3000781
  38.0605399  39.6336623   7.6587802  38.8047444  40.0210899   7.8970752
  38.2066095  38.7894048   7.8228290  38.1915984  39.5667096   7.7181772
  39.9784975  31.4286882  12.6919664  39.1321020  31.6009690  12.5661013
  39.9756107  30.6236226  13.0285492  39.8532125  31.3347911  12.7230791
  41.0483275  35.2062096  13.5581722  40.5743229  34.6803858  14.0687032
  41.4201411  34.6591569  12.9896583  41.0333164  35.0478093  13.5496869
  31.4256305  37.2033603  18.9265267  32.2881918  37.1029312  18.8402597
  31.0948088  36.6228312  18.3650839  31.5041502  37.1025230  18.8310673
  47.3120006  40.2664472  14.9688502  47.0718229  39.4270887  14.9730928
  47.7912013  40.3464639  15.6929276  47.3472189  40.1545872  15.0763304
  42.9766775  36.0998651   6.6207475  42.4489793  36.1827395   5.9313184
  43.4362483  36.8416522   6.6172120  42.9668625  36.2219313   6.5182170
  49.3125193  37.0465929  12.9217761  49.0734963  37.0061763  12.0838546
  49.4759094  37.8937081  13.0483482  49.3015496  37.1658014  12.8171243
  45.9171223  41.4315878  18.8522806  46.6405422  40.9788405  18.6733826
  45.6521185  41.7120544  18.0695134  45.9852496  41.4066847  18.7101522
  34.7858091  36.0276052  15.5875685  34.1611161  36.0394444  14.9801638
  34.4503686  36.5036227  16.2366926  34.6443583  36.0994569  15.5932254
  34.9699840  34.3701170   1.6448371  34.6212644  35.0220896   2.1079920
  34.4896286  34.3558284   0.9172242  34.8470084  34.4644224   1.6059462
  31.4983767  44.0876512  17.0279450  30.9683691  43.3968951  17.0774425
  31.7708860  44.0786697  16.1992158  31.4608489  43.9843644  16.9126866
  42.5303857  44.6702214   5.7517132  43.2538056  45.1360327   5.6081706
  42.0904448  44.7375824   5.0014729  42.5719549  44.7486051   5.6201914
  41.6990012  41.5299757  17.0017821  41.0847005  40.9857807  17.2966457
  42.2157297  41.0163993  16.5223638  41.6845675  41.3736166  16.9742050
  40.9386309  42.6004027  14.7362120  40.5113918  41.9753745  14.3027555
  40.9311254  42.3178949  15.5621127  40.8745451  42.4656807  14.7941948
  34.0548837  37.6369200  17.8050554  34.2142323  36.8812524  18.2102276
  33.8741730  38.1860139  18.4591292  34.0514196  37.6063014  17.9613260
  41.9969140  29.8030435  18.3601343  41.5009701  29.9994110  17.6692910
  42.7538202  30.2023104  18.1890145  42.0355964  29.8908169  18.2321480
  39.2672019  33.4772781  14.9504654  39.2914506  32.9432894  14.2617434
  39.5183493  32.9690090  15.6130245  39.3081938  33.3233685  14.9469299
  26.7779609  40.7604276  14.3847798  26.6723058  40.7151121  13.5199882
  26.0279829  41.1058057  14.6662083  26.6515212  40.8045184  14.2985128
  35.5473341  32.2043600  14.3310398  35.5871713  32.7052806  15.0445106
  34.7223006  32.2953993  14.0616321  35.4312867  32.2925416  14.3960937
  37.7302954  41.7704339  22.4330693  36.8798585  41.9076054  22.5688338
  37.8931082  41.0368118  22.8778395  37.6286818  41.6818441  22.5186292
  36.9687705  38.7204109  16.6284297  36.1379634  38.8877927  16.4219545
  36.9139222  38.3440060  17.4133183  36.8377120  38.6893841  16.7132825
  35.3423749  36.9959701   7.1574415  35.4826710  37.4932165   7.8603056
  35.8406281  36.2945995   7.2988629  35.4364830  36.9661680   7.2825994
  35.3723971  37.8626812   4.4866992  36.0069050  38.4587237   4.4216454
  35.4549582  37.5630270   5.3012862  35.4780522  37.9067720   4.5970078
  48.3506537  40.3942289  17.3553356  48.9424377  41.0339540  17.3871554
  48.7865531  39.6965326  17.6445423  48.5024968  40.3860640  17.4034189
  36.9502954  33.7940787   4.4612434  37.2718795  33.3143870   3.8071696
  37.2129898  34.6040433   4.2703245  37.0368979  33.8430685   4.3367926
  40.1799927  44.8159662  17.9811250  39.6725018  45.3695509  18.4251880
  39.8826573  44.8767952  17.1630024  40.0604812  44.9065973  17.9259707
  42.3462109  33.1812981  16.8235913  42.7717180  32.7285508  16.2119439
  41.7319102  32.6273052  17.1000700  42.3190754  33.0326958  16.7740938
  31.8776959  40.0594653   7.7556538  32.3869188  40.6559160   8.1367843
  32.3511231  39.7920626   7.0732957  32.0220335  40.1080468   7.7111061
  42.7907707  48.7322919   5.9115193  42.0737017  48.5583782   5.4462431
  43.4414445  48.4975492   5.3790679  42.7809557  48.6718712   5.7644411
  40.7856332  29.6528081  10.2326490  40.1424650  29.5025727  10.8011628
  40.4455739  29.4070426   9.4675595  40.6401409  29.5940204  10.2029505
  45.3755678  37.6087508   9.6556499  44.7046868  38.1517210   9.5269564
  46.0695428  38.0782363   9.4138193  45.3784546  37.7585779   9.6012026
  39.4242412  49.7484220  14.8868257  39.2008066  48.9903049  15.2552283
  38.9352255  49.7782241  14.1648697  39.3185861  49.6406444  14.8344998
  45.5383806  34.0643392  12.5646872  45.8911416  33.6373114  13.2392670
  44.6798607  33.9794235  12.6947948  45.4633250  33.9888132  12.6841882
  34.2367491  36.6950911  10.6229718  33.5179480  37.1115044  10.8902582
  34.6079853  37.2605150  10.0721356  34.1859422  36.8400193  10.5812525
  43.5367071  37.3278760  16.5131714  43.5164999  37.1462055  17.3666493
  43.5846272  38.1990779  16.4891298  43.5401712  37.4295298  16.6355009
  41.4813401  43.9165952  22.4380191  41.4409256  43.2715629  21.8525346
  42.2936720  43.8602570  22.7505603  41.5956555  43.8124919  22.3977140
  38.0720869  49.9684678  12.3405341  37.6581267  49.3058808  11.9509183
  38.7568243  50.1162537  11.8201036  38.1119241  49.8925336  12.2061839
  41.4386163  49.1274763  13.0928958  41.0402446  49.2377034  12.3249778
  40.8237383  49.3356830  13.6755518  41.2885052  49.1748331  13.0660257
  40.0114065  35.7348911   5.9603098  39.4178904  36.0565908   5.4087665
  40.0489343  34.8890007   5.7524204  39.9288454  35.6573239   5.8485869
  46.9707866  29.1861803  13.4931184  46.4638730  28.4790943  13.4252362
  47.7675299  28.8554992  13.6232261  47.0135105  29.0334955  13.5030179
  42.8871882  35.6928416   9.3904848  42.6585575  35.7161117   8.5483206
  43.1469958  34.8685883   9.5099859  42.8918070  35.5744496   9.2830046
  37.1691110  37.5462889  18.9929948  36.6570013  36.9384072  19.3514980
  36.9970606  38.2619481  19.4603924  37.0680747  37.5626188  19.1146172
  35.9416644  34.2304962  10.6859044  36.4174010  34.5922042  10.0509225
  35.4405244  34.8861430  10.9659186  35.9382003  34.3799151  10.6335785
  49.1728006  43.7026730   6.4772049  49.5561611  44.4518086   6.7070146
  48.3772119  43.9492550   6.2184038  49.1121788  43.8496424   6.4729622
  41.0460180  35.4687133  21.4332204  41.6031610  35.2400943  20.8010669
  40.7221245  36.2292799  21.1567416  41.0806590  35.5470970  21.2988701
  28.9158889  38.8947330  16.9020800  28.3685609  38.2247975  17.0201668
  29.7051267  38.5277177  16.9664267  28.9511073  38.7412316  16.9289500
  38.7643298  38.5554787  22.3984211  39.5154625  38.8706463  22.7123765
  38.9565874  38.3533958  21.5718133  38.9034712  38.5722168  22.3227607
  37.9843297  36.3746162   4.0532428  38.3642262  36.3925791   3.2683542
  37.2435893  36.8200151   3.9323275  37.9312135  36.4427936   3.9195996
  45.6128588  34.6828353   9.6408006  45.6122814  34.5277009  10.4992283
  45.4084768  35.5291340   9.5849392  45.5828366  34.7848974   9.7595946
  27.6745859  38.1068137  14.0566823  27.4967620  37.6544746  14.7821738
  27.3864881  38.9094299  14.2405300  27.6058812  38.1590695  14.1910326
  43.3369440  39.3625855  13.2944213  43.8323105  38.6448850  13.2548233
  42.5269216  39.0596652  13.1798700  43.2913333  39.2123501  13.2717939
  38.7828051  43.2123668   5.4441218  37.9739374  42.8890342   5.3974527
  39.2902960  42.5056890   5.3769466  38.7377718  43.0604984   5.4271512
  29.4118329  40.6395861  11.1688582  28.5463848  40.6281552  11.0571353
  29.5117144  40.4526084  12.0159721  29.2992496  40.6101922  11.2777526
  45.4021259  42.1129542  15.9821342  45.8276330  41.5903964  15.4291767
  45.0378179  42.7110380  15.4609965  45.4107861  42.1239769  15.8230352
  35.0375338  50.4093760  14.7418687  35.3521897  51.2230148  14.7496469
  35.4468752  50.0243978  15.4100847  35.1443436  50.4722462  14.8422779
  41.9899858  45.8263806  12.3122499  42.4611036  46.5404069  12.4812485
  42.3260037  45.2262557  12.8482369  42.1094973  45.8435271  12.4154875
  38.9069353  30.5991277  19.2680594  39.0397259  29.8022270  19.5961570
  39.2914506  31.1257680  19.8478870  38.9825682  30.5591194  19.4024097
  42.6273804  45.6181741  19.0750192  42.0794750  44.9939624  18.8070257
  43.0886833  45.8076013  18.3594271  42.6141014  45.5540791  18.9300623
  41.9801708  27.5221603  15.8661687  41.1747672  27.4119333  16.1829526
  41.8508444  27.6234059  15.0091553  41.8421841  27.5205273  15.7869728
  45.4367669  33.6867095  16.4601384  44.8530658  34.1876302  16.0478952
  45.7571963  33.1796651  15.8265708  45.3980844  33.6858930  16.3059892
  37.9762468  32.6007690   6.7360059  38.7978162  32.7706003   6.4941754
  37.5132119  32.7554951   6.0126357  38.0293630  32.6489423   6.5931703
  36.5657800  30.5950452  17.5158488  37.1102213  30.2541579  18.1062830
  36.6194736  31.4535914  17.6579773  36.6546919  30.6705711  17.6240361
  32.3788359  44.3566868  14.3897296  32.9833216  44.3162702  13.7611117
  32.1715671  45.2038020  14.4201352  32.4377256  44.4754871  14.3013412
  42.1932131  46.6232813  15.6059533  43.0130505  46.4795779  15.8675828
  41.9126208  47.2479012  16.1475971  42.2728874  46.6943165  15.7247473
  27.6139641  43.3401486  14.2596219  27.5163919  42.5297757  14.5686276
  28.3968511  43.3193279  13.8742487  27.7155777  43.2168576  14.2483082
  58.6645781  54.2797665   8.5702410  58.6339785  55.1342302   8.7420679
  59.2627130  53.9792958   9.1288553  58.7482939  54.3614162   8.6777212
  51.8645466  53.3673316  13.3255340  51.0083361  53.5281814  13.3764457
  51.9113120  52.4965380  13.3460401  51.7444577  53.2624118  13.3361406
  46.2486606  62.9036034   9.0892572  45.4969505  62.5251572   8.8608617
  46.6972617  62.9354468   8.3411382  46.2036272  62.8521641   8.9450074
  55.1739182  59.6359842  22.9315796  55.8805950  59.1411872  23.0602731
  55.3627118  60.0768923  22.2018454  55.3067088  59.6278192  22.8424842
  54.7097287  55.4265360  15.9686992  55.2553247  56.1050447  16.0280961
  54.6514163  55.2852821  15.1088573  54.7813201  55.5057362  15.8499052
  47.8271362  62.9154426  11.3555344  47.9281725  62.1054780  11.6652472
  47.2313107  62.8211372  10.7255023  47.7543900  62.7819454  11.3081583
  47.6672101  67.8332015  12.7570200  48.3109557  68.2745179  13.1466359
  47.9928357  67.0285441  12.6700459  47.8103930  67.7797210  12.8015677
  41.0236406  58.9374713  10.9807678  40.7886591  58.1042365  10.8739947
  41.1622047  59.2179378  10.1668879  41.0092069  58.8558216  10.8450033
  43.3226494  51.1060443  13.8791985  42.7031525  50.5153090  13.7102000
  43.2210357  51.6971878  13.2456309  43.2164169  51.1064526  13.7596975
  50.4194389  52.8459985   8.2124449  51.1174554  53.0248113   8.7045912
  50.7346722  52.3230324   7.5894838  50.5689726  52.7953757   8.1926459
  43.0495627  54.6512725  16.1235554  42.9254323  55.2375170  16.7585373
  43.7013911  54.1572921  16.4247829  43.1269276  54.6651529  16.2621484
  50.6082325  59.2330430   8.2004240  51.0475960  58.6247531   8.6459013
  50.4586987  58.8537803   7.4289705  50.6503790  59.0868901   8.1523407
  48.0753968  57.8274442  15.4023066  48.7202970  57.3346885  15.0834014
  48.3155745  57.9699228  16.2289144  48.2064553  57.7751884  15.4772599
  50.6140059  60.6729348  15.0529958  50.8963302  59.8780753  14.8316714
  51.3426219  61.1509935  15.0735019  50.7629623  60.6263945  15.0232973
  48.5921253  48.2152382  12.2945723  48.2624583  48.6663525  11.6249422
  47.9166255  48.1368545  12.8418730  48.4431689  48.2703517  12.2768946
  55.7997661  44.2037905  10.5395334  55.4851102  44.8941383  10.9715756
  55.2824602  44.1482687   9.8380835  55.6762131  44.2972793  10.4992283
  60.5958147  59.7788710  12.0265789  59.7655850  59.9899354  12.1899205
  60.5467400  58.9525765  11.7508072  60.4664883  59.6878316  12.0103154
  42.5853731  63.8160383  12.2563884  42.1021309  64.5410873  12.2323468
  43.3977049  64.1136513  12.3674042  42.6344479  63.9662737  12.2691163
  48.6567885  62.6092564  14.8613698  48.1394826  62.2499979  14.2575006
  49.3542276  62.0854739  14.8719764  48.6833466  62.4790252  14.7743957
  52.3131477  63.0587378  20.8229871  52.4014823  62.8713519  21.6708082
  52.7421189  62.4124808  20.4234718  52.3893579  62.9350386  20.8901623
  49.8801937  62.3418538  19.8047534  49.3172771  61.9291148  20.3287195
  50.6422960  62.2671444  20.2240677  49.9096385  62.2695939  19.9440534
  46.7977207  46.2764670   7.7768671  47.5523175  46.6442987   7.5385721
  46.6204741  46.6504224   8.5447850  46.8831685  46.3862858   7.8553559
  45.4397928  64.3316559  12.4084164  46.1418507  63.8168548  12.4656920
  45.3595411  64.6590711  13.2131039  45.5321688  64.3030786  12.5356956
  60.0912106  52.4259111  15.8216210  59.2540527  52.4961298  16.0563805
  60.0600337  52.4283605  14.9490513  59.9630388  52.4369338  15.7275758
  45.1534271  48.6834989   4.4746784  44.9709845  48.9006870   3.6487777
  46.0159885  48.7974002   4.5305398  45.2538861  48.7324887   4.3601271
  44.7648703  60.5222911  11.9169772  45.6037603  60.7545844  11.9643533
  44.7960473  59.6527223  11.8476807  44.8930421  60.4279858  11.9134416
  45.3901406  60.9423787  16.2183077  45.9299631  60.7994918  16.8886450
  44.7071353  61.3420537  16.5867104  45.3693560  60.9803457  16.3717499
  50.8333991  45.6861400   7.5095808  51.5620151  45.5077355   7.0633964
  50.9228884  46.5279480   7.7202986  50.9540653  45.7845278   7.4749325
  54.8142291  56.6214787  11.4128102  55.5699806  57.0546301  11.4517010
  54.9204616  55.9719557  11.9862738  54.9412462  56.5892271  11.5026127
  57.8522462  60.4488064  12.1630505  57.4157694  60.4524807  12.9189476
  57.5185378  61.1293563  11.7310082  57.7385082  60.5500520  12.2111337
  57.7719945  47.4901892  14.4059933  58.4145854  47.5599997  14.9921848
  58.0242966  46.8231115  13.9039475  57.9042078  47.4028241  14.4187212
  44.6996299  51.9609162   2.9869257  43.9854476  51.6747341   3.3991689
  45.1840267  52.3005788   3.6275644  44.6655662  51.9690811   3.1424892
  52.5821929  64.4006499  17.1340111  51.7837175  64.1605999  17.3913979
  53.0307941  64.4520892  17.8807158  52.5296541  64.3728890  17.2825035
  60.9866809  57.1668984  11.0550142  61.6483243  56.6059653  10.9546050
  60.3458221  56.6721015  11.3802833  60.9895676  57.0105393  11.0882482
  41.2031965  57.9482857  13.6529243  41.0207538  57.9229743  12.8001535
  41.9381634  58.4181795  13.6918152  41.2846029  58.0144219  13.5327162
  57.2731639  58.1834367  10.7962131  57.5087229  58.3279566   9.9688981
  57.4221203  58.9476775  11.1893644  57.3297443  58.3173421  10.7325735
  54.3153985  54.8700935   9.3155315  54.4100840  55.6090229   9.7694940
  53.6912829  54.4418411   9.7489879  54.2363015  54.9162256   9.4463462
  52.5706459  58.0487148  19.9645595  53.1445321  57.4114392  20.1194159
  52.4921263  58.0491230  19.0955253  52.6439694  57.9552259  19.8592006
  41.1702876  54.8276357  13.8028310  41.7476378  54.6912808  14.4420555
  40.4716937  54.3712142  14.0573894  41.1523897  54.7398624  13.9350599
  47.9270178  56.4810413  12.0166793  47.6689422  55.6482148  11.9898092
  47.9818661  56.7068026  11.1759293  47.8969956  56.3908184  11.8886930
  53.0071228  48.5838864  12.1170886  52.3027555  48.0948049  12.2754805
  53.0556202  48.5961338  11.2459330  52.9101279  48.5128512  12.0110225
  50.5678179  52.5071525  17.3624066  50.1792611  52.0825743  16.7076257
  49.9032877  52.7553674  17.8701093  50.4125106  52.4810246  17.3411934
  60.2101448  52.2646529  10.1371896  59.9538012  51.4526471   9.9469779
  61.0530762  52.2724097   9.9102083  60.2967473  52.1458527  10.0756713
  36.6461709  53.6788250  10.5176128  36.7321961  53.3020119  11.2989658
  37.2737506  53.3048696  10.0396087  36.7518260  53.5673732  10.5621606
  54.3904540  46.2046154  14.8748050  54.7715052  45.5224325  15.2615924
  53.5867824  45.9155756  14.6923715  54.3281002  46.0613202  14.9052106
  57.8926607  59.4196126  19.9730449  57.6565244  58.5884190  19.8542509
  58.5369836  59.3681733  20.5585293  57.9521278  59.2893813  20.0416342
  47.5425025  60.2091647  10.6873185  48.1798972  59.9703394  11.2324978
  47.9680097  60.4128806   9.9526346  47.7001191  60.2042657  10.6590342
  42.2337667  62.4479983  14.5707489  42.2741813  62.7194834  13.7427268
  42.7932191  62.9721891  14.9865277  42.3221013  62.5655738  14.5099377
  48.1827840  55.4293937   5.0248074  48.5672993  55.2101643   5.7764620
  47.9339460  56.2556882   5.1549151  48.2029913  55.5192083   5.1549151
  58.9163028  59.2040574  16.0358743  58.6108845  59.9368631  16.3972059
  58.1969243  58.7978504  15.7551529  58.7650370  59.2522307  16.0471880
  49.9246497  60.6864069  12.3666971  49.9985505  60.5239241  13.2208821
  50.7416003  60.8754259  12.1227453  50.0562856  60.6900812  12.4564997
  64.6164820  55.8433575  15.3627087  64.5489320  55.8629534  14.4929674
  64.6020482  56.6863902  15.5882758  64.6043576  55.9707310  15.2679564
  43.6852254  61.0321932   9.3961415  42.8590371  61.2783669   9.2695694
  43.7464245  60.9534013  10.2623473  43.5726421  61.0566881   9.5050359
  45.9028277  47.0990873  10.3556855  45.0350703  47.1713473  10.4214464
  46.1903482  47.9012952  10.5444830  45.8168026  47.2285020  10.3931622
  55.0261166  47.2468733  18.6868177  55.7714758  47.0578543  18.2731602
  54.6098471  47.7726971  18.1282033  55.0746140  47.2970878  18.5432750
  62.4023437  54.6177961  13.6373682  62.9531359  53.9846030  13.8770774
  62.3867552  55.1493354  14.3289186  62.4808633  54.6026909  13.7752540
  49.0545828  58.4516558  18.1833575  48.5557522  59.1632326  18.2618464
  49.8646052  58.7717225  18.1451738  49.1001935  58.6043407  18.1890144
  46.4056998  65.6266195  10.1640594  46.1857294  65.3363550  10.9567262
  46.1851520  64.9681150   9.6358507  46.3404592  65.4865903  10.2029503
  45.3173946  57.7139511  12.4296296  45.0287194  57.0876983  12.9642023
  46.1857294  57.6559799  12.4960977  45.4034197  57.6127056  12.5187251
  56.1051843  52.8574295  12.7478278  55.7616609  52.1364630  13.0985528
  56.2044886  52.6488146  11.9056636  56.0693886  52.7198498  12.6749958
  45.5206219  59.3534763   8.3538661  46.2752187  59.7347802   8.5674124
  44.9276832  59.8045906   8.8085358  45.5442932  59.4763590   8.4521540
  46.8404445  60.5243324  13.7278777  46.3185199  60.6643616  14.4130641
  47.2278466  59.7653988  13.9180894  46.8208146  60.4328848  13.8579853
  43.8295630  50.5749133   7.7973731  43.5420425  50.2050403   7.0605679
  44.5166098  51.0443988   7.5357436  43.8884527  50.5896102   7.6488807
  48.2670771  57.5547343   9.1260268  48.0713554  58.1622077   8.5320571
  48.4905117  56.8615287   8.6451942  48.2705412  57.5424868   8.9676348
  46.6649301  54.4402081   9.2441136  47.3871953  54.6043239   8.7844942
  46.1857294  55.1611746   9.1380476  46.7013032  54.5700310   9.1606750
  54.6242809  50.7765880  14.6237821  53.7853909  50.8027158  14.3876084
  54.6947176  51.4236615  15.2043168  54.5111202  50.8762005  14.6746938
  53.0712087  47.6751257   9.3565437  53.7738440  47.4759005   8.8785395
  52.8056276  46.9027199   9.6634280  53.1358719  47.5314223   9.3310878
  58.5000333  55.9833866  11.9099063  58.4134307  56.1389292  12.7633842
  58.0450812  56.6271942  11.5358468  58.4203589  56.1009621  11.9806169
  41.4023824  51.3530345   8.6459012  41.5039961  52.1556506   8.9739988
  42.1979711  51.1517681   8.3482093  41.5351730  51.4416244   8.6494368
  42.2187556  51.4677523  16.3880134  42.0773048  50.6161464  16.5124642
  42.5028120  51.5106184  15.5642340  42.2395402  51.3477273  16.2847758
  52.3726149  53.3044613  10.5324622  52.1260863  53.2240364  11.3661411
  52.7011272  52.5198081  10.3387150  52.3847392  53.1770879  10.6272145
  56.2674197  60.0127973  14.3211403  56.1288557  60.7109019  14.8260146
  55.4874195  59.8576629  13.9647585  56.1317424  60.0928139  14.3437678
  54.6052283  56.3124348  20.5733785  54.6000321  55.4404165  20.5776212
  55.3113276  56.5112517  20.1003241  54.7097287  56.2128222  20.5040821
  50.5043093  55.2391500  17.7272737  49.7566407  55.4322515  17.3221015
  50.6584618  54.4136720  17.4896858  50.4165521  55.1456612  17.6318143
  47.4050931  64.2304104  16.8108632  47.5540495  63.6707020  16.1582037
  48.1850933  64.3096106  17.1941151  47.5425024  64.1589669  16.7705581
  49.9304231  64.4018747  18.0893123  49.8547903  63.7327557  18.6443911
  49.8594091  65.1036535  18.6033789  49.9084838  64.4063654  18.2469971
  50.7444870  49.1342051  18.6168141  51.2017484  49.8666025  18.7440933
  50.8201199  48.7108516  19.3755396  50.8235840  49.1799289  18.7469217
  55.2172196  42.3131926  12.4861984  55.3355764  42.7708390  11.7529286
  55.0434372  41.5077188  12.1998201  55.2091367  42.2625698  12.3362917
  48.6227248  51.1244155  15.4609965  47.8323323  50.9435615  15.7827300
  49.0187871  50.3471108  15.4440259  48.5644124  50.9831616  15.5062513
  54.0070934  58.7586585  13.1869411  53.3315936  58.5271817  13.6882798
  54.0163311  58.1507768  12.5611516  53.9089439  58.6345510  13.1685563
  51.1365078  53.6004414  19.9433464  51.0724220  54.4614371  19.8153600
  51.2762266  53.2836407  19.1429015  51.1480548  53.6804581  19.8061676
  49.8184172  56.2936554  14.0849666  49.3946421  56.4941053  13.3488685
  49.6429028  55.4465402  14.1973966  49.7295053  56.1985335  13.9923357
  49.3195866  67.8087067  16.5471124  49.8091796  67.1097856  16.3646788
  48.7480098  67.5110937  17.1347181  49.3080396  67.6613290  16.6072165
  45.1066617  56.7888605   9.5177639  45.2631236  56.7235408  10.3733631
  45.4467210  57.5637158   9.3056319  45.1799852  56.8937803   9.6132233
  51.6445762  56.1646489   8.3871002  52.1861307  55.6616870   8.8509623
  51.9592321  56.1111683   7.5760487  51.7710159  56.0825909   8.3354814
  55.5162869  60.3749136  25.4997914  56.3297735  60.1034285  25.6603047
  55.3557836  60.0756676  24.6958110  55.6132818  60.2904062  25.4043320
  52.7935031  51.0582793  18.4393303  53.0077001  50.4193707  17.8856657
  52.1768930  51.5028617  18.0101164  52.7340361  51.0292937  18.2943734
  41.6800879  53.9723555   9.8338406  42.0599844  54.3908100   9.1698673
  41.1056244  54.5537011  10.1407249  41.6512204  54.1201414   9.7815147
  54.9574119  52.6671858  19.3776610  54.1450801  52.3597749  19.4589782
  55.4164054  52.1870858  19.9419322  54.9054504  52.5508351  19.4731204
  52.1849760  44.1682729  13.4280645  51.3143318  44.1421450  13.3813955
  52.4390101  43.9959921  12.6106491  52.0943320  44.1392872  13.3000782
  49.2098900  46.1788957  14.8854116  48.6937389  45.4869149  15.0105695
  48.6492829  46.8459734  14.8316715  49.0505414  46.1752215  14.8960182
  51.2791134  46.7181917  16.7146968  50.8922887  46.7430949  17.4960498
  50.7924071  46.1523596  16.2621485  51.1503643  46.6377668  16.7634872
  55.5284113  61.4355426  20.7720755  56.1663834  60.9415622  20.4383211
  54.8858205  61.3632827  20.1872982  55.5278340  61.3514435  20.6363110
  57.2541113  53.2844572  15.3386671  56.8268721  53.1970921  14.5834770
  56.6167166  53.3922348  15.9241515  57.0970721  53.2877232  15.3132112
  50.9448276  43.6048903  19.0057228  51.5741394  44.1409203  18.7278299
  51.1134138  43.5126262  19.8570794  51.0626070  43.6710265  19.0905756
  55.5838370  62.1275234  17.4126112  56.3730748  61.7764299  17.5328193
  55.7581968  62.9411623  17.1502746  55.7258652  62.1961092  17.3913980
  45.3231680  55.5383960  14.4653901  44.4819687  55.4387834  14.6732794
  45.5321688  56.3079440  14.8168221  45.2296373  55.6376004  14.5481215
  42.8007247  53.1603497  12.2938651  42.4063945  53.2346509  11.5188761
  42.2447364  53.5461444  12.8447013  42.6610060  53.2285272  12.2606311
  54.4372194  46.1384791  11.9742530  54.6421787  46.0707099  12.8199527
  54.1098618  46.9443612  11.9063708  54.4187442  46.2470732  12.0902185
  49.1348345  53.4665359  13.7151498  48.8311483  52.9121348  14.3161906
  48.4327766  53.6457569  13.2279532  48.9864555  53.4110142  13.7321204
  48.1914442  50.7765879   8.2796200  48.4674177  50.0584792   7.8673767
  48.7913112  51.3750799   8.0717306  48.3207707  50.7586250   8.1876961
  47.1966696  60.6815080  18.4223596  47.0887051  60.6917142  19.2885654
  47.4062478  61.5069861  18.2328550  47.2116807  60.8056155  18.5227687
  57.6905882  46.6916555  11.4545296  57.0780195  47.1786958  11.8399027
  57.7870057  46.0160046  11.9982947  57.6143779  46.6634864  11.5924154
  51.6924963  48.4479397   6.5542795  52.1468709  48.6189957   7.2790639
  52.1665009  47.8347507   6.1540571  51.8293283  48.3830282   6.6016557
  45.2140488  57.9327723  15.8845533  44.6228421  58.5737221  15.8548549
  45.9761512  58.3565340  15.8576833  45.2388749  58.0903561  15.8760681
  45.6101111  49.0929720  16.5513551  46.0702593  49.1668650  17.2888675
  45.6557218  49.8910974  16.2013372  45.6851666  49.2223867  16.6086308
  61.3330910  57.7633492  16.8822812  61.3914033  58.2120141  17.6282788
  60.6997377  58.1732305  16.4452892  61.2482205  57.8907227  16.9275360
  54.9730004  63.3837034  13.3177558  54.7749693  63.8727849  12.6233769
  54.3517715  63.5878276  13.8961691  54.8517569  63.4853572  13.3000781
  49.0337983  55.1521931   7.6587802  49.7780028  55.5396207   7.8970752
  49.1798679  54.3079356   7.8228290  49.1648568  55.0852404   7.7181772
  50.9517558  46.9472190  12.6919664  50.1053603  47.1194998  12.5661013
  50.9488691  46.1421534  13.0285492  50.8264708  46.8533219  12.7230791
  52.0215859  50.7247404  13.5581722  51.5475813  50.1989166  14.0687032
  52.3933994  50.1776877  12.9896583  52.0065748  50.5663401  13.5496869
  58.2852589  55.7849780  14.9688502  58.0450812  54.9456195  14.9730928
  58.7644596  55.8649947  15.6929276  58.3204773  55.6731180  15.0763304
  53.9499358  51.6183959   6.6207475  53.4222377  51.7012703   5.9313184
  54.4095066  52.3601830   6.6172120  53.9401209  51.7404621   6.5182170
  60.2857776  52.5651237  12.9217761  60.0467546  52.5247071  12.0838546
  60.4491677  53.4122389  13.0483482  60.2748080  52.6843322  12.8171243
  56.8903806  56.9501186  18.8522806  57.6138005  56.4973713  18.6733826
  56.6253769  57.2305852  18.0695134  56.9585080  56.9252155  18.7101522
  45.7590675  51.5461360  15.5875685  45.1343745  51.5579752  14.9801638
  45.4236270  52.0221535  16.2366926  45.6176167  51.6179877  15.5932254
  45.9432423  49.8886478   1.6448371  45.5945228  50.5406204   2.1079920
  45.4628869  49.8743591   0.9172242  45.8202667  49.9829532   1.6059462
  42.4716350  59.6061820  17.0279450  41.9416275  58.9154259  17.0774425
  42.7441444  59.5972005  16.1992158  42.4341073  59.5028952  16.9126866
  52.6722596  57.0485065  17.0017821  52.0579589  56.5043115  17.2966457
  53.1889881  56.5349301  16.5223638  52.6578258  56.8921474  16.9742050
  51.9118893  58.1189335  14.7362120  51.4846501  57.4939053  14.3027555
  51.9043837  57.8364257  15.5621127  51.8478034  57.9842115  14.7941948
  45.0281420  53.1554508  17.8050554  45.1874907  52.3997832  18.2102276
  44.8474314  53.7045447  18.4591292  45.0246779  53.1248321  17.9613260
  52.9701723  45.3215743  18.3601343  52.4742284  45.5179418  17.6692910
  53.7270785  45.7208412  18.1890145  53.0088548  45.4093477  18.2321480
  50.2404603  48.9958089  14.9504654  50.2647090  48.4618202  14.2617434
  50.4916076  48.4875398  15.6130245  50.2814521  48.8418993  14.9469299
  37.7512193  56.2789584  14.3847798  37.6455642  56.2336429  13.5199882
  37.0012413  56.6243365  14.6662083  37.6247795  56.3230492  14.2985128
  46.5205925  47.7228907  14.3310398  46.5604297  48.2238114  15.0445106
  45.6955590  47.8139301  14.0616321  46.4045451  47.8110724  14.3960937
  47.9420288  54.2389417  16.6284297  47.1112218  54.4063235  16.4219545
  47.8871806  53.8625368  17.4133183  47.8109703  54.2079149  16.7132825
  46.3156332  52.5145009   7.1574415  46.4559293  53.0117473   7.8603056
  46.8138865  51.8131303   7.2988629  46.4097413  52.4846988   7.2825994
  46.3456555  53.3812120   4.4866992  46.9801634  53.9772545   4.4216454
  46.4282165  53.0815577   5.3012862  46.4513106  53.4253028   4.5970078
  59.3239120  55.9127597  17.3553356  59.9156961  56.5524848  17.3871554
  59.7598115  55.2150634  17.6445423  59.4757552  55.9045948  17.4034189
  47.9235537  49.3126095   4.4612434  48.2451378  48.8329178   3.8071696
  48.1862481  50.1225741   4.2703245  48.0101563  49.3615993   4.3367926
  51.1532510  60.3344970  17.9811250  50.6457601  60.8880816  18.4251880
  50.8559156  60.3953259  17.1630024  51.0337395  60.4251281  17.9259707
  53.3194692  48.6998289  16.8235913  53.7449764  48.2470816  16.2119439
  52.7051686  48.1458360  17.1000700  53.2923338  48.5512265  16.7740938
  42.8509542  55.5779961   7.7556538  43.3601772  56.1744468   8.1367843
  43.3243815  55.3105934   7.0732957  42.9952918  55.6265776   7.7111061
  51.7588915  45.1713389  10.2326490  51.1157233  45.0211035  10.8011628
  51.4188322  44.9255734   9.4675595  51.6133993  45.1125511  10.2029505
  56.3488262  53.1272816   9.6556499  55.6779452  53.6702518   9.5269564
  57.0428012  53.5967671   9.4138193  56.3517129  53.2771087   9.6012026
  50.3974995  65.2669528  14.8868257  50.1740650  64.5088357  15.2552283
  49.9084839  65.2967549  14.1648697  50.2918444  65.1591752  14.8344998
  56.5116389  49.5828699  12.5646872  56.8643999  49.1558422  13.2392670
  55.6531191  49.4979543  12.6947948  56.4365834  49.5073440  12.6841882
  45.2100074  52.2136219  10.6229718  44.4912063  52.6300352  10.8902582
  45.5812436  52.7790458  10.0721356  45.1592006  52.3585501  10.5812525
  54.5099655  52.8464068  16.5131714  54.4897582  52.6647363  17.3666493
  54.5578856  53.7176087  16.4891298  54.5134296  52.9480606  16.6355009
  52.4545985  59.4351260  22.4380191  52.4141840  58.7900937  21.8525346
  53.2669303  59.3787877  22.7505603  52.5689138  59.3310227  22.3977140
  49.0453452  65.4869986  12.3405341  48.6313851  64.8244116  11.9509183
  49.7300827  65.6347845  11.8201036  49.0851824  65.4110644  12.2061839
  52.4118747  64.6460071  13.0928958  52.0135030  64.7562342  12.3249778
  51.7969966  64.8542138  13.6755518  52.2617636  64.6933639  13.0660257
  50.9846649  51.2534219   5.9603098  50.3911488  51.5751216   5.4087665
  51.0221926  50.4075314   5.7524204  50.9021038  51.1758547   5.8485869
  57.9440449  44.7047111  13.4931184  57.4371314  43.9976251  13.4252362
  58.7407883  44.3740300  13.6232261  57.9867688  44.5520263  13.5030179
  53.8604465  51.2113724   9.3904848  53.6318158  51.2346425   8.5483206
  54.1202541  50.3871191   9.5099859  53.8650653  51.0929803   9.2830046
  46.9149228  49.7490270  10.6859044  47.3906594  50.1107350  10.0509225
  46.4137827  50.4046737  10.9659186  46.9114587  49.8984459  10.6335785
  52.0192764  50.9872441  21.4332204  52.5764194  50.7586251  20.8010669
  51.6953829  51.7478107  21.1567416  52.0539174  51.0656278  21.2988701
  48.9575881  51.8931470   4.0532428  49.3374846  51.9111099   3.2683542
  48.2168477  52.3385458   3.9323275  48.9044719  51.9613244   3.9195996
  56.5861171  50.2013661   9.6408006  56.5855398  50.0462317  10.4992283
  56.3817351  51.0476648   9.5849392  56.5560949  50.3034282   9.7595946
  38.6478442  53.6253445  14.0566823  38.4700203  53.1730054  14.7821738
  38.3597464  54.4279607  14.2405300  38.5791395  53.6776003  14.1910326
  54.3102023  54.8811163  13.2944213  54.8055689  54.1634158  13.2548233
  53.5001799  54.5781960  13.1798700  54.2645917  54.7308809  13.2717939
  40.3850912  56.1581169  11.1688582  39.5196432  56.1466859  11.0571353
  40.4849728  55.9711392  12.0159721  40.2725079  56.1287230  11.2777526
  56.3753842  57.6314850  15.9821342  56.8008914  57.1089272  15.4291767
  56.0110762  58.2295688  15.4609965  56.3840445  57.6425077  15.8230352
  46.0107922  65.9279068  14.7418687  46.3254481  66.7415456  14.7496469
  46.4201335  65.5429286  15.4100847  46.1176020  65.9907770  14.8422779
  52.9632442  61.3449114  12.3122499  53.4343620  62.0589377  12.4812485
  53.2992620  60.7447865  12.8482369  53.0827557  61.3620579  12.4154875
  55.0509426  62.9550428  24.4914571  55.1606392  62.1658988  24.8471319
  55.3800323  62.8656364  23.6888910  55.1161832  62.8256281  24.4256962
  53.6006388  61.1367049  19.0750192  53.0527334  60.5124932  18.8070257
  54.0619417  61.3261321  18.3594271  53.5873597  61.0726099  18.9300623
  52.9534292  43.0406911  15.8661687  52.1480255  42.9304641  16.1829526
  52.8241027  43.1419367  15.0091553  52.8154425  43.0390581  15.7869728
  56.4100252  49.2052403  16.4601384  55.8263241  49.7061610  16.0478952
  56.7304546  48.6981959  15.8265708  56.3713428  49.2044238  16.3059892
  48.9495051  48.1192998   6.7360059  49.7710746  48.2891311   6.4941754
  48.4864702  48.2740259   6.0126357  49.0026214  48.1674731   6.5931703
  47.5390383  46.1135760  17.5158488  48.0834796  45.7726887  18.1062830
  47.5927319  46.9721222  17.6579773  47.6279503  46.1891019  17.6240361
  43.3520942  59.8752176  14.3897296  43.9565800  59.8348010  13.7611117
  43.1448255  60.7223328  14.4201352  43.4109839  59.9940179  14.3013412
  53.1664714  62.1418121  15.6059533  53.9863088  61.9981087  15.8675828
  52.8858792  62.7664320  16.1475971  53.2461458  62.2128473  15.7247473
  38.5872224  58.8586794  14.2596219  38.4896502  58.0483065  14.5686276
  39.3701094  58.8378587  13.8742487  38.6888361  58.7353884  14.2483082
  54.0228210  70.1698033  16.1235554  53.8986907  70.7560478  16.7585373
  54.6746495  69.6758229  16.4247829  54.1001860  70.1836837  16.2621484
  57.4609418  70.0877454  21.5364579  57.6329922  69.9783349  22.3849860
  57.9978776  70.7331860  21.2995771  57.5654422  70.1669456  21.6269676
  56.5169742  66.2187764  19.0184507  55.8241538  65.7484743  19.2645238
  57.1330069  65.9926068  19.5926214  56.5054271  66.1154895  19.1393659
  55.2410300  70.1853168  20.1611352  55.9650273  70.1706198  20.6476246
  55.3426437  70.8948523  19.6633320  55.3628510  70.2877871  20.1590139
  62.6155250  73.6652252  25.0260299  61.8228231  73.9795764  25.2112918
  62.7304177  73.8803721  24.1881083  62.5150660  73.7436089  24.9298634
  61.5410762  68.0256833  17.3624066  61.1525195  67.6011050  16.7076257
  60.8765460  68.2738982  17.8701093  61.3857690  67.9995554  17.3411934
  59.3228964  64.2285660  24.7410659  59.0082405  64.9985222  24.4780221
  59.0018897  63.6655916  24.1562886  59.2287883  64.2595928  24.6152009
  65.9993750  62.7654041  18.6868177  66.7447342  62.5763851  18.2731602
  65.5831054  63.2912279  18.1282033  66.0478724  62.8156186  18.5432750
  58.9545469  66.8282911  23.4795874  58.1445245  67.1340690  23.3685716
  59.4320156  67.5488493  23.5948458  58.9048948  66.9797512  23.4802945
  55.2889501  72.3645461  18.3495276  55.8010598  72.6429714  17.7004036
  55.0025844  73.1034755  18.7158089  55.3224365  72.5147815  18.3085154
  58.8073227  64.4571850  18.4096317  58.6156424  64.4726984  19.2595741
  59.6571823  64.6535524  18.3862972  58.9048949  64.4886201  18.5319612
  53.1920140  66.9862831  16.3880134  53.0505632  66.1346772  16.5124642
  53.4760703  67.0291492  15.5642340  53.2127986  66.8662581  16.2847758
  59.3055759  71.5586640  19.9447605  59.4499135  72.1387848  19.3090715
  59.6531408  71.9362937  20.6497460  59.3783221  71.7007344  19.9546600
  61.7177454  64.6527359  18.6168141  62.1750068  65.3851333  18.7440933
  61.7933783  64.2293824  19.3755396  61.7968424  64.6984597  18.7469217
  53.9610445  64.8993179  19.7057584  53.4252635  64.2873537  20.0218352
  54.0228210  65.4741315  20.3591251  53.8906078  64.8940107  19.8493011
  59.5959832  66.6429463  15.4609965  58.8055906  66.4620923  15.7827300
  59.9920455  65.8656416  15.4440259  59.5376708  66.5016924  15.5062513
  62.1097662  69.1189722  19.9433464  62.0456803  69.9799679  19.8153600
  62.2494850  68.8021715  19.1429015  62.1213132  69.1989889  19.8061676
  63.7667615  66.5768101  18.4393303  63.9809584  65.9379015  17.8856657
  63.1501514  67.0213925  18.0101164  63.7072944  66.5478245  18.2943734
  65.9306703  68.1857166  19.3776610  65.1183385  67.8783057  19.4589782
  66.3896637  67.7056166  19.9419322  65.8787088  68.0693659  19.4731204
  63.0260210  69.5917238  24.1605312  63.4959842  70.2159354  24.5473186
  63.0722091  68.9234213  24.7198527  63.1028086  69.5851918  24.3005383
  60.1831484  61.6974265  14.8854116  59.6669973  61.0054457  15.0105695
  59.6225413  62.3645042  14.8316715  60.0237997  61.6937523  14.8960182
  62.2523717  62.2367225  16.7146968  61.8655471  62.2616257  17.4960498
  61.7656655  61.6708904  16.2621485  62.1236226  62.1562976  16.7634872
  61.9180859  59.1234211  19.0057228  62.5473977  59.6594511  18.7278299
  62.0866722  59.0311570  19.8570794  62.0358654  59.1895573  19.0905756
  61.7194774  63.9105405  21.2783640  62.5468203  63.6390554  21.3342254
  61.7402620  64.7066247  21.6347458  61.8447624  63.9885160  21.3398823
  56.5833695  64.6115028  16.5513551  57.0435176  64.6853958  17.2888675
  56.6289801  65.4096282  16.2013372  56.6584250  64.7409175  16.6086308
  58.2317044  65.2781723  21.1185578  57.8402609  64.6315070  21.5541356
  58.4002907  65.8693158  21.7379834  58.1987955  65.2695991  21.2748284
  53.3721472  68.2404219  18.9265267  54.2347085  68.1399928  18.8402597
  53.0413255  67.6598928  18.3650839  53.4506669  68.1395846  18.8310673
  56.7323258  67.0646668  15.5875685  56.1076328  67.0765060  14.9801638
  56.3968853  67.5406843  16.2366926  56.5908750  67.1365185  15.5932254
  56.0014004  68.6739816  17.8050554  56.1607490  67.9183140  18.2102276
  55.8206897  69.2230755  18.4591292  55.9979363  68.6433629  17.9613260
  63.9434307  60.8401051  18.3601343  63.4474868  61.0364725  17.6692910
  64.7003369  61.2393719  18.1890145  63.9821131  60.9278785  18.2321480
  57.4938509  63.2414215  14.3310398  57.5336880  63.7423422  15.0445106
  56.6688173  63.3324609  14.0616321  57.3778034  63.3296032  14.3960937
  59.6768121  72.8074955  22.4330693  58.8263752  72.9446670  22.5688338
  59.8396249  72.0738734  22.8778395  59.5751985  72.7189057  22.5186292
  56.7236655  63.2483618  22.2640708  57.3489359  62.7045751  22.5370140
  56.2687135  62.7678536  21.6948498  56.7484916  63.0973099  22.2202302
  64.2927276  64.2183597  16.8235913  64.7182348  63.7656124  16.2119439
  63.6784269  63.6643668  17.1000700  64.2655921  64.0697573  16.7740938
  63.4278568  74.9536568  22.4380191  63.3874423  74.3086245  21.8525346
  64.2401887  74.8973185  22.7505603  63.5421722  74.8495535  22.3977140
  59.1156277  68.5833505  18.9929948  58.6035180  67.9754687  19.3514980
  58.9435773  69.2990097  19.4603924  59.0145914  68.5996804  19.1146172
  53.9621992  67.0271080  21.6432310  53.7924582  67.6872455  21.0980517
  53.5187942  67.2377641  22.3644799  53.8721325  67.1557062  21.6693939
  62.9925347  66.5057749  21.4332204  63.5496778  66.2771559  20.8010669
  62.6686412  67.2663415  21.1567416  63.0271758  66.5841586  21.2988701
  50.8624056  69.9317945  16.9020800  50.3150776  69.2618591  17.0201668
  51.6516435  69.5647793  16.9664267  50.8976240  69.7782932  16.9289500
  60.7108465  69.5925402  22.3984211  61.4619792  69.9077079  22.7123765
  60.9031041  69.3904573  21.5718133  60.8499879  69.6092784  22.3227607
  49.6211026  69.1438753  14.0566823  49.4432787  68.6915362  14.7821738
  49.3330048  69.9464915  14.2405300  49.5523979  69.1961311  14.1910326
  60.8534520  61.6361893  19.2680594  60.9862426  60.8392886  19.5961570
  61.2379673  62.1628296  19.8478870  60.9290849  61.5961810  19.4024097
  63.9266875  58.5592219  15.8661687  63.1212839  58.4489949  16.1829526
  63.7973611  58.6604675  15.0091553  63.7887008  58.5575889  15.7869728
  58.5122967  61.6321068  17.5158488  59.0567380  61.2912195  18.1062830
  58.5659903  62.4906530  17.6579773  58.6012086  61.7076327  17.6240361
  43.8957423  21.0552665   9.8655843  44.6024190  20.5604696   9.9942777
  44.0845358  21.4961746   9.1358501  44.0285328  21.0471015   9.7764888
  36.3890342  29.2524838  -0.3089753  37.0327797  29.6938003   0.0806405
  36.7146597  28.4478265  -0.3959494  36.5322170  29.1990033  -0.2644276
  41.0349717  24.4780201   7.7569918  41.1233063  24.2906342   8.6048129
  41.4639430  23.8317631   7.3574765  41.1111820  24.3543209   7.8241670
  38.6020177  23.7611361   6.7387580  38.0391012  23.3483971   7.2627242
  39.3641200  23.6864267   7.1580724  38.6314626  23.6888762   6.8780581
  35.2095075  15.9884970   8.4704626  35.3815579  15.8790864   9.3189907
  35.7464432  16.6339375   8.2335818  35.3140079  16.0676971   8.5609722
  41.1469776  23.9089220  10.4213702  41.9310193  24.0220068  10.7869444
  40.9466371  23.0830358  10.6172388  41.2335802  23.8035940  10.5048088
  41.3040170  25.8199323   4.0680157  40.5055416  25.5798823   4.3254026
  41.7526181  25.8713715   4.8147205  41.2514781  25.7921714   4.2165082
  40.3640907  19.5659767  11.9600346  39.5713887  19.8803279  12.1452965
  40.4789834  19.7811236  11.1221130  40.2636317  19.6443604  11.8638680
  41.2924699  19.4679971   6.8985642  41.8663561  18.8307215   7.0534206
  41.2139503  19.4684054   6.0295300  41.3657934  19.3745083   6.7932053
  46.6144847  20.8388949   6.9070495  46.3783485  20.0077014   6.7882556
  47.2588076  20.7874556   7.4925340  46.6739518  20.7086637   6.9756389
  37.0714621  10.1293175  11.6750706  36.7568062  10.8992738  11.4120268
  36.7504553   9.5663431  11.0902932  36.9773540  10.1603444  11.5492055
  47.6381268  20.6233398   2.9698790  47.3327085  21.3561454   3.3312106
  46.9187484  20.2171327   2.6891576  47.4868610  20.6715131   2.9811927
  53.3383060  17.2626398   2.2967134  53.2707560  17.2822357   1.4269721
  53.3238722  18.1056725   2.5222805  53.3261817  17.3900133   2.2019611
  37.7764068  19.8709382   5.1173622  37.2775762  20.5825149   5.1958511
  38.5864293  20.1910048   5.0791784  37.8220175  20.0236230   5.1230191
  36.7031126  12.7290426  10.4135920  35.8930902  13.0348206  10.3025763
  37.1805813  13.4496008  10.5288504  36.6534605  12.8805027  10.4142991
  44.9892438  21.4320796   1.2551450  44.8506797  22.1301842   1.7600193
  44.2092436  21.2769453   0.8987632  44.8535665  21.5120963   1.2777724
  43.3270523  17.7317171   7.5073832  43.3218561  16.8596988   7.5116258
  44.0331517  17.9305341   7.0343288  43.4315527  17.6321046   7.4380867
  37.0541416  17.4594155   6.8787652  37.1984792  18.0395363   6.2430762
  37.4017065  17.8370452   7.5837507  37.1268878  17.6014859   6.8886647
  36.1269171  25.6496927   3.7448679  36.2758735  25.0899843   3.0922083
  36.9069173  25.7288929   4.1281198  36.2643265  25.5782493   3.7045628
  38.6522472  25.8211570   5.0233170  38.5766143  25.1520381   5.5783958
  38.5812331  26.5229358   5.5373836  38.6303079  25.8256477   5.1810018
  39.8583319  15.0197237   6.8773510  39.7942460  15.8807194   6.7493647
  39.9980507  14.7029231   6.0769062  39.8698789  15.0997404   6.7401723
  38.0414106  29.2279890   3.4811171  38.5310036  28.5290679   3.2986835
  37.4698338  28.9303760   4.0687228  38.0298636  29.0806113   3.5412211
  44.2381110  21.7941959  12.4337961  45.0515975  21.5227108  12.5943094
  44.0776076  21.4949499  11.6298157  44.3351058  21.7096885  12.3383367
  43.6792360  14.0864682   6.3116657  42.8669041  13.7790572   6.3929829
  44.1382294  13.6063682   6.8759369  43.6272744  13.9701174   6.4071251
  40.7745867  15.4924753  11.0945359  41.2445498  16.1166869  11.4813233
  40.8207747  14.8241728  11.6538574  40.8513743  15.4859433  11.2345430
  44.2502354  22.8548249   7.7060802  44.8882074  22.3608445   7.3723258
  43.6076445  22.7825650   7.1213029  44.2496580  22.7707258   7.5703157
  44.3056610  23.5468058   4.3466159  45.0948988  23.1957122   4.4668240
  44.4800208  24.3604446   4.0842792  44.4476892  23.6153915   4.3254027
  35.9184937  22.1007903   5.3563643  35.8105291  22.1109965   6.2225701
  36.1280718  22.9262684   5.1668596  35.9335048  22.2248978   5.4567734
  50.0549150  19.1826315   3.8162859  50.1132274  19.6312964   4.5622835
  49.4215618  19.5925128   3.3792939  49.9700445  19.3100050   3.8615407
  43.6948245  24.8029857   0.2517605  43.4967933  25.2920672  -0.4426184
  43.0735956  25.0071099   0.8301738  43.5735809  24.9046396   0.2340828
  45.6122047  18.3694010   5.7862853  46.3356246  17.9166536   5.6073873
  45.3472009  18.6498675   5.0035181  45.6803320  18.3444978   5.6441568
  41.3940836  18.4677888   3.9357868  40.7797829  17.9235938   4.2306503
  41.9108121  17.9542124   3.4563684  41.3796499  18.3114297   3.9082097
  37.4253778  18.7082471   9.3670740  36.5749409  18.8454185   9.5028385
  37.5881906  17.9746249   9.8118441  37.3237642  18.6196572   9.4526339
  48.0457361  17.3320420   4.2893403  48.6375201  17.9717671   4.3211601
  48.4816355  16.6343457   4.5785470  48.1975792  17.3238771   4.3374235
  39.8750751  21.7537793   4.9151297  39.3675842  22.3073640   5.3591927
  39.5777397  21.8146083   4.0970071  39.7555636  21.8444104   4.8599753
  39.1193236  26.6862351   1.8208304  38.8958890  25.9281180   2.1892330
  38.6303079  26.7160372   1.0988743  39.0136685  26.5784576   1.7685045
  41.1764225  20.8544083   9.3720237  41.1360080  20.2093760   8.7865393
  41.9887543  20.7980701   9.6845649  41.2907379  20.7503050   9.3317187
  41.1336987  26.0652894   0.0269005  40.7353270  26.1755165  -0.7410175
  40.5188206  26.2734961   0.6095565  40.9835876  26.1126462   0.0000304
  40.7411004  12.4065264   8.3672251  41.2982434  12.1779074   7.7350716
  40.4172069  13.1670930   8.0907463  40.7757414  12.4849101   8.2328748
  38.4594122  15.4932918   9.3324258  39.2105449  15.8084595   9.6463812
  38.6516698  15.2912089   8.5058179  38.5985536  15.5100300   9.2567653
  45.0972083  19.0507673   2.9161389  45.5227154  18.5282095   2.3631814
  44.7329002  19.6488511   2.3950012  45.1058685  19.0617900   2.7570398
  34.7326162  27.3471891   1.6758734  35.0472721  28.1608279   1.6836516
  35.1419576  26.9622110   2.3440893  34.8394260  27.4100593   1.7762826
  43.7727667  24.3743251  11.4254618  43.8824632  23.5851812  11.7811365
  44.1018563  24.2849187  10.6228956  43.8380072  24.2449104  11.3597009
  42.3224628  22.5559872   6.0090239  41.7745574  21.9317755   5.7410304
  42.7837657  22.7454144   5.2934318  42.3091838  22.4918922   5.8640670
  41.8882955  23.5610945   2.5399580  42.7081328  23.4173911   2.8015875
  41.6077032  24.1857143   3.0816018  41.9679698  23.6321297   2.6587519
  51.5596290  30.3051447   0.2595387  50.7034185  30.4659945   0.3104504
  51.6063944  29.4343511   0.2800448  51.4395401  30.2002249   0.2701453
  45.9437430  39.8414165  -3.9767382  45.1920329  39.4629703  -4.2051337
  46.3923441  39.8732599  -4.7248571  45.8987096  39.7899772  -4.1209879
  54.8690006  36.5737973   9.8655843  55.5756774  36.0790004   9.9942777
  55.0577942  37.0147054   9.1358501  55.0017912  36.5656323   9.7764888
  54.4048111  32.3643491   2.9027038  54.9504071  33.0428578   2.9621008
  54.3464987  32.2230952   2.0428620  54.4764025  32.4435493   2.7839099
  47.5222186  39.8532557  -1.7104609  47.6232549  39.0432911  -1.4007481
  46.9263931  39.7589504  -2.3404931  47.4494724  39.7197585  -1.7578371
  47.3622925  44.7710146  -0.3089753  48.0060381  45.2123310   0.0806405
  47.6879181  43.9663573  -0.3959494  47.5054754  44.7175341  -0.2644276
  40.7187230  35.8752844  -2.0852275  40.4837414  35.0420496  -2.1920007
  40.8572871  36.1557510  -2.8991074  40.7042893  35.7936347  -2.2209920
  43.0177318  28.0438574   0.8132032  42.3982349  27.4531222   0.6442047
  42.9161181  28.6350010   0.1796355  42.9114993  28.0442657   0.6937022
  50.1145213  29.7838116  -4.8535505  50.8125378  29.9626244  -4.3614041
  50.4297546  29.2608456  -5.4765115  50.2640550  29.7331888  -4.8733495
  42.7446451  31.5890856   3.0575601  42.6205147  32.1753302   3.6925420
  43.3964735  31.0951052   3.3587876  42.8220100  31.6029661   3.1961531
  50.3033149  36.1708561  -4.8655713  50.7426784  35.5625662  -4.4200940
  50.1537811  35.7915935  -5.6370248  50.3454614  36.0247032  -4.9136546
  47.7704792  34.7652573   2.3363112  48.4153794  34.2725016   2.0174061
  48.0106569  34.9077360   3.1629191  47.9015377  34.7130015   2.4112646
  50.3090883  37.6107479   1.9870005  50.5914126  36.8158885   1.7656761
  51.0377043  38.0888066   2.0075066  50.4580447  37.5642076   1.9573020
  48.2872077  25.1530513  -0.7714230  47.9575407  25.6041656  -1.4410531
  47.6117079  25.0746676  -0.2241224  48.1382513  25.2081648  -0.7891007
  60.2908971  36.7166841  -1.0394164  59.4606674  36.9277485  -0.8760748
  60.2418224  35.8903896  -1.3151881  60.1615707  36.6256447  -1.0556799
  42.2804555  40.7538515  -0.8096069  41.7972133  41.4789004  -0.8336486
  43.0927873  41.0514645  -0.6985912  42.3295302  40.9040868  -0.7968790
  48.3518709  39.5470695   1.7953745  47.8345650  39.1878110   1.1915053
  49.0493100  39.0232870   1.8059811  48.3784290  39.4168383   1.7084004
  52.0082301  39.9965509   7.7569918  52.0965647  39.8091650   8.6048129
  52.4372013  39.3502939   7.3574765  52.0844403  39.8728517   7.8241670
  49.5752761  39.2796669   6.7387580  49.0123595  38.8669279   7.2627242
  50.3373784  39.2049575   7.1580724  49.6047209  39.2074070   6.8780581
  45.1348752  41.2694691  -0.6575789  45.8369331  40.7546680  -0.6003033
  45.0546235  41.5968842   0.1471086  45.2272512  41.2408917  -0.5302997
  59.7862930  29.3637242   2.7556257  58.9491351  29.4339429   2.9903851
  59.7551160  29.3661737   1.8830559  59.6581212  29.3747469   2.6615805
  46.1827659  31.5070277   8.4704626  46.3548162  31.3976172   9.3189907
  46.7197016  32.1524683   8.2335818  46.2872663  31.5862279   8.5609722
  44.4599527  37.4601042  -1.1490181  45.2988427  37.6923975  -1.1016420
  44.4911297  36.5905354  -1.2183146  44.5881245  37.3657989  -1.1525537
  45.0852230  37.8801918   3.1523124  45.6250455  37.7373049   3.8226496
  44.4022177  38.2798668   3.5207150  45.0644384  37.9181589   3.3057546
  54.5093115  33.5592918  -1.6531852  55.2650630  33.9924433  -1.6142943
  54.6155440  32.9097688  -1.0797215  54.6363286  33.5270402  -1.5633826
  57.5473286  37.3866196  -0.9029449  57.1108518  37.3902938  -0.1470477
  57.2136202  38.0671695  -1.3349871  57.4335906  37.4878651  -0.8548616
  52.1202360  39.4274528  10.4213702  52.9042777  39.5405376  10.7869444
  51.9198955  38.6015665  10.6172388  52.2068385  39.3221248  10.5048088
  40.4889375  34.1002208   3.3057546  40.2227791  33.2841325   3.4648536
  40.5027940  34.1455364   2.4353061  40.4514098  33.9859113   3.2011028
  57.4670769  24.4280023   1.3399979  58.1096678  24.4978128   1.9261895
  57.7193790  23.7609246   0.8379521  57.5992901  24.3406372   1.3527259
  45.2387982  27.6380587   5.9524553  44.5459779  27.1677566   6.1985285
  45.8548309  27.4118891   6.5266260  45.2272512  27.5347719   6.0733706
  52.2772753  41.3384630   4.0680157  51.4787999  41.0984131   4.3254026
  52.7258765  41.3899023   4.8147205  52.2247365  41.3107022   4.2165082
  60.6817633  34.1047115  -2.0109811  61.3434067  33.5437784  -2.1113903
  60.0409045  33.6099146  -1.6857120  60.6846500  33.9483524  -1.9777471
  40.8982789  34.8860988   0.5869290  40.7158362  34.8607874  -0.2658418
  41.6332458  35.3559926   0.6258199  40.9796853  34.9522350   0.4667208
  56.9682463  35.1212498  -2.2697823  57.2038053  35.2657697  -3.0970972
  57.1172027  35.8854906  -1.8766309  57.0248267  35.2551552  -2.3334219
  43.9628541  31.6045991   7.0951399  44.6868513  31.5899021   7.5816293
  44.0644677  32.3141346   6.5973367  44.0846750  31.7070694   7.0930185
  51.3373490  35.0845075  11.9600346  50.5446471  35.3988587  12.1452965
  51.4522417  35.2996544  11.1221130  51.2368901  35.1628912  11.8638680
  54.0104809  31.8079067  -3.7504639  54.1051664  32.5468361  -3.2965013
  53.3863653  31.3796542  -3.3170074  53.9313839  31.8540387  -3.6196491
  52.2657283  34.9865279   6.8985642  52.8396145  34.3492523   7.0534206
  52.1872087  34.9869362   6.0295300  52.3390518  34.8930391   6.7932053
  40.8653699  31.7654489   0.7368356  41.4427202  31.6290939   1.3760602
  40.1667761  31.3090273   0.9913941  40.8474721  31.6776755   0.8690646
  47.6221002  33.4188544  -1.0493160  47.3640246  32.5860279  -1.0761861
  47.6769484  33.6446157  -1.8900660  47.5920780  33.3286316  -1.1773024
  52.7022052  25.5216995  -0.9489068  51.9978379  25.0326180  -0.7905148
  52.7507026  25.5339469  -1.8200623  52.6052103  25.4506643  -1.0549728
  46.5955714  30.9726307  -0.5628266  46.0205305  31.1318475   0.0735695
  46.2191390  30.3361716  -1.0259815  46.4558526  30.9024120  -0.5373707
  50.2629002  29.4449656   4.2964113  49.8743435  29.0203874   3.6416304
  49.5983701  29.6931806   4.8041140  50.1075930  29.4188377   4.2751981
  54.0855364  23.1424285   1.8088097  54.4665876  22.4602456   2.1955971
  53.2818648  22.8533887   1.6263762  54.0231826  22.9991333   1.8392153
  57.5877431  36.3574257   6.9070495  57.3516068  35.5262322   6.7882556
  58.2320660  36.3059864   7.4925340  57.6472102  36.2271945   6.9756389
  47.2375849  37.1469778  -2.3786768  47.8749796  36.9081526  -1.8334975
  47.6630921  37.3506937  -3.1133607  47.3952015  37.1420788  -2.4069611
  41.9288491  39.3858115   1.5047536  41.9692637  39.6572966   0.6767315
  42.4883015  39.9100023   1.9205324  42.0171837  39.5033870   1.4439424
  48.0447204  25.6478483  11.6750706  47.7300645  26.4178046  11.4120268
  47.7237137  25.0848739  11.0902932  47.9506123  25.6788752  11.5492055
  58.6113852  36.1418705   2.9698790  58.3059669  36.8746762   3.3312106
  57.8920067  35.7356635   2.6891576  58.4601194  36.1900438   2.9811927
  49.6197321  37.6242201  -0.6992982  49.6936329  37.4617373   0.1548868
  50.4366827  37.8132390  -0.9432500  49.7513680  37.6278943  -0.6094956
  64.3115644  32.7811706   2.2967134  64.2440144  32.8007665   1.4269721
  64.2971306  33.6242033   2.5222805  64.2994400  32.9085441   2.2019611
  43.3803078  37.9700063  -3.6698538  42.5541195  38.2161801  -3.7964260
  43.4415069  37.8912144  -2.8036480  43.2677245  37.9945012  -3.5609594
  54.7211990  24.1846864   5.6208224  55.4665582  23.9956674   5.2071649
  54.3049295  24.7105102   5.0622080  54.7696964  24.2349009   5.4772797
  62.0974261  31.5556092   0.5713729  62.6482183  30.9224161   0.8110821
  62.0818376  32.0871485   1.2629233  62.1759457  31.5405041   0.7092587
  48.7496652  35.3894690   5.1173622  48.2508345  36.1010457   5.1958511
  49.5596876  35.7095356   5.0791784  48.7952759  35.5421538   5.1230191
  46.1007822  42.5644326  -2.9019359  45.8808118  42.2741681  -2.1092692
  45.8802344  41.9059281  -3.4301446  46.0355416  42.4244035  -2.8630450
  45.0124769  34.6517643  -0.6363657  44.7238018  34.0255114  -0.1017930
  45.8808117  34.5937930  -0.5698977  45.0985021  34.5505187  -0.5472702
  55.8002667  29.7952426  -0.3181675  55.4567433  29.0742761   0.0325575
  55.8995710  29.5866277  -1.1603317  55.7644710  29.6576629  -0.3909995
  45.2157043  36.2912894  -4.7121292  45.9703011  36.6725933  -4.4985829
  44.6227655  36.7424037  -4.2574595  45.2393756  36.4141721  -4.6138414
  47.6763710  28.2475734  10.4135920  46.8663486  28.5533514  10.3025763
  48.1538397  28.9681316  10.5288504  47.6267189  28.3990335  10.4142991
  46.5355269  37.4621455   0.6618823  46.0136023  37.6021747   1.3470688
  46.9229290  36.7032119   0.8520941  46.5158970  37.3706979   0.7919900
  47.9621595  34.4925474  -3.9399686  47.7664378  35.1000209  -4.5339383
  48.1855941  33.7993418  -4.4208012  47.9656236  34.4803000  -4.0983605
  46.3600125  31.3780212  -3.8218817  47.0822777  31.5421370  -4.2815011
  45.8808118  32.0989877  -3.9279477  46.3963856  31.5078442  -3.9053203
  54.3193633  27.7144011   1.5577868  53.4804733  27.7405290   1.3216131
  54.3898000  28.3614746   2.1383214  54.2062026  27.8140137   1.6086985
  44.0107742  33.7838284   5.2835323  44.5228839  34.0622538   4.6344082
  43.7244084  34.5227578   5.6498136  44.0442605  33.9340638   5.2425201
  58.1951156  32.9211998  -1.1560890  58.1085131  33.0767424  -0.3026112
  57.7401636  33.5650073  -1.5301485  58.1154413  33.0387753  -1.0853784
  47.5291467  25.8764673   5.3436364  47.3374664  25.8919807   6.1935788
  48.3790063  26.0728347   5.3203019  47.6267189  25.9079024   5.4659659
  41.9138380  28.4055654   3.3220181  41.7723872  27.5539595   3.4464689
  42.1978944  28.4484315   2.4982387  41.9346226  28.2855404   3.2187805
  52.0676973  30.2422745  -2.5335331  51.8211687  30.1618496  -1.6998542
  52.3962096  29.4576212  -2.7272803  52.0798216  30.1149010  -2.4387808
  55.9625021  36.9506104   1.2551450  55.8239381  37.6487150   1.7600193
  55.1825019  36.7954760   0.8987632  55.8268248  37.0306271   1.2777724
  54.3003106  33.2502479   7.5073832  54.2951145  32.3782296   7.5116258
  55.0064100  33.4490649   7.0343288  54.4048110  33.1506354   7.4380867
  48.0274000  32.9779463   6.8787652  48.1717376  33.5580671   6.2430762
  48.3749648  33.3555760   7.5837507  48.1001461  33.1200167   6.8886647
  50.1993917  32.1769632   4.6612784  49.4517231  32.3700646   4.2561062
  50.3535442  31.3514851   4.4236905  50.1116345  32.0834743   4.5658190
  47.1001755  41.1682235   3.7448679  47.2491319  40.6085151   3.0922083
  47.8801757  41.2474237   4.1281198  47.2375848  41.0967801   3.7045628
  49.6255055  41.3396878   5.0233170  49.5498727  40.6705689   5.5783958
  49.5544915  42.0414666   5.5373836  49.6035662  41.3441785   5.1810018
  50.4395694  26.0720182   5.5508187  50.8968308  26.8044157   5.6780980
  50.5152023  25.6486648   6.3095443  50.5186664  26.1177420   5.6809264
  42.6828685  26.3186002   6.6397631  42.1470875  25.7066360   6.9558398
  42.7446450  26.8934138   7.2931298  42.6124318  26.3132930   6.7833058
  48.3178072  28.0622286   2.3950011  47.5274147  27.8813746   2.7167347
  48.7138695  27.2849239   2.3780306  48.2594948  27.9209747   2.4402560
  53.7021758  35.6964716   0.1209457  53.0266760  35.4649949   0.6222844
  53.7114134  35.0885899  -0.5048438  53.6040263  35.5723642   0.1025610
  50.8315902  30.5382545   6.8773510  50.7675044  31.3992502   6.7493647
  50.9713090  30.2214539   6.0769062  50.8431372  30.6182712   6.7401723
  49.5134996  33.2314685   1.0189713  49.0897245  33.4319184   0.2828732
  49.3379851  32.3843533   1.1314013  49.4245877  33.1363466   0.9263403
  49.0146690  44.7465198   3.4811171  49.5042620  44.0475987   3.2986835
  48.4430922  44.4489068   4.0687228  49.0031220  44.5991421   3.5412211
  44.8017441  33.7266736  -3.5482314  44.9582060  33.6613539  -2.6926322
  45.1418034  34.5015289  -3.7603635  44.8750676  33.8315934  -3.4527720
  51.3396586  33.1024620  -4.6788951  51.8812131  32.5995001  -4.2150330
  51.6543145  33.0489814  -5.4899466  51.4660983  33.0204041  -4.7305139
  55.2113693  37.3127267  12.4337961  56.0248559  37.0412416  12.5943094
  55.0508660  37.0134807  11.6298157  55.3083642  37.2282193  12.3383367
  52.4885855  27.9960924   5.3733349  52.7027825  27.3571838   4.8196703
  51.8719754  28.4406748   4.9441211  52.4291184  27.9671068   5.2283781
  41.3751703  30.9101687  -3.2321547  41.7550668  31.3286232  -3.8961280
  40.8007068  31.4915142  -2.9252704  41.3463028  31.0579545  -3.2844806
  54.6524943  29.6049989   6.3116657  53.8401625  29.2975880   6.3929829
  55.1114878  29.1248990   6.8759369  54.6005328  29.4886482   6.4071251
  51.8800584  21.1060860   0.3620692  51.0094142  21.0799581   0.3154002
  52.1340925  20.9338052  -0.4553462  51.7894144  21.0771004   0.2340829
  51.7478451  31.0110061  11.0945359  52.2178082  31.6352177  11.4813233
  51.7940331  30.3427036  11.6538574  51.8246327  31.0044741  11.2345430
  48.9049724  23.1167088   1.8194163  48.3888213  22.4247280   1.9445742
  48.3443653  23.7837865   1.7656761  48.7456238  23.1130346   1.8300229
  50.9741958  23.6560048   3.6487015  50.5873711  23.6809080   4.4300545
  50.4874895  23.0901727   3.1961532  50.8454467  23.5755799   3.6974919
  55.2234937  38.3733557   7.7060802  55.8614658  37.8793753   7.3723258
  54.5809029  38.3010958   7.1213029  55.2229164  38.2892566   7.5703157
  56.9491937  30.2222703   2.2726717  56.5219545  30.1349052   1.5174817
  56.3117990  30.3300479   2.8581561  56.7921545  30.2255363   2.2472159
  50.6399100  20.5427034   5.9397275  51.2692218  21.0787334   5.6618345
  50.8084962  20.4504393   6.7910841  50.7576894  20.6088396   6.0245803
  50.4413014  25.3298229   8.2123687  51.2686444  25.0583377   8.2682301
  50.4620860  26.1259070   8.5687505  50.5665864  25.4077983   8.2738870
  55.2789194  39.0653366   4.3466159  56.0681572  38.7142430   4.4668240
  55.4532792  39.8789754   4.0842792  55.4209476  39.1339223   4.3254027
  45.0182504  32.4762091   1.3993947  44.1770511  32.3765966   1.6072841
  45.2272512  33.2457572   1.7508268  44.9247197  32.5754135   1.4821262
  42.4958071  30.0981628  -0.7721302  42.1014769  30.1724640  -1.5471192
  41.9398188  30.4839575  -0.2212940  42.3560884  30.1663403  -0.8053642
  54.1323018  23.0762922  -1.0917423  54.3372611  23.0085230  -0.2460426
  53.8049442  23.8821744  -1.1596246  54.1138266  23.1848863  -0.9757768
  48.8299169  30.4043491   0.6491545  48.5262307  29.8499479   1.2501953
  48.1278590  30.5835701   0.1619579  48.6815379  30.3488273   0.6661251
  46.8917520  37.6193211   5.3563643  46.7837875  37.6295273   6.2225701
  47.1013302  38.4447992   5.1668596  46.9067631  37.7434286   5.4567734
  44.9091312  34.8705854   2.8185580  44.3179245  35.5115352   2.7888595
  45.6712336  35.2943471   2.7916880  44.9339573  35.0281692   2.8100727
  45.3051935  26.0307851   3.4853598  45.7653416  26.1046781   4.2228722
  45.3508042  26.8289105   3.1353419  45.3802490  26.1601998   3.5426354
  46.9535285  26.6974546   8.0525625  46.5620850  26.0507893   8.4881403
  47.1221147  27.2885982   8.6719880  46.9206195  26.6888814   8.2088331
  61.0281734  34.7011623   3.8162859  61.0864857  35.1498272   4.5622835
  60.3948201  35.1110436   3.3792939  60.9433029  34.8285358   3.8615407
  54.6680828  40.3215165   0.2517605  54.4700517  40.8105980  -0.4426184
  54.0468539  40.5256407   0.8301738  54.5468393  40.4231704   0.2340828
  48.7288807  32.0900062  -5.4072151  49.4730852  32.4774338  -5.1689201
  48.8749503  31.2457487  -5.2431663  48.8599392  32.0230535  -5.3478181
  50.6468382  23.8850321  -0.3740290  49.8004427  24.0573129  -0.4998940
  50.6439515  23.0799665  -0.0374461  50.5215532  23.7911350  -0.3429163
  51.7166683  27.6625535   0.4921768  51.2426637  27.1367297   1.0027079
  52.0884818  27.1155008  -0.0763370  51.7016572  27.5041532   0.4836916
  42.0939713  29.6597042   5.8605314  42.9565326  29.5592751   5.7742644
  41.7631496  29.0791751   5.2990886  42.1724909  29.5588669   5.7650720
  57.9803413  32.7227911   1.9028549  57.7401636  31.8834326   1.9070975
  58.4595420  32.8028078   2.6269322  58.0155597  32.6109311   2.0103351
  59.9808600  29.5029368  -0.1442192  59.7418370  29.4625202  -0.9821407
  60.1442501  30.3500520  -0.0176471  59.9698904  29.6221453  -0.2488710
  56.5854630  33.8879318   5.7862853  57.3088829  33.4351844   5.6073873
  56.3204593  34.1683983   5.0035181  56.6535904  33.8630286   5.6441568
  45.4541499  28.4839491   2.5215732  44.8294569  28.4957883   1.9141685
  45.1187094  28.9599666   3.1706972  45.3126991  28.5558008   2.5272301
  42.1667174  36.5439951   3.9619497  41.6367099  35.8532390   4.0114471
  42.4392268  36.5350137   3.1332205  42.1291897  36.4407083   3.8466913
  52.3673420  33.9863196   3.9357868  51.7530413  33.4421246   4.2306503
  52.8840705  33.4727432   3.4563684  52.3529082  33.8299605   3.9082097
  51.6069717  35.0567466   1.6702167  51.1797325  34.4317184   1.2367602
  51.5994661  34.7742388   2.4961174  51.5428858  34.9220246   1.7281994
  44.7232244  30.0932639   4.7390601  44.8825731  29.3375963   5.1442323
  44.5425138  30.6423578   5.3931338  44.7197603  30.0626453   4.8953307
  52.6652547  22.2593874   5.2941390  52.1693108  22.4557549   4.6032957
  53.4221609  22.6586543   5.1230192  52.7039372  22.3471608   5.1661527
  49.9355427  25.9336220   1.8844701  49.9597914  25.3996333   1.1957481
  50.1866900  25.4253529   2.5470291  49.9765345  25.7797124   1.8809345
  37.4463016  33.2167715   1.3187845  37.3406466  33.1714560   0.4539929
  36.6963236  33.5621496   1.6002130  37.3198619  33.2608624   1.2325175
  46.2156749  24.6607039   1.2650445  46.2555120  25.1616245   1.9785153
  45.3906414  24.7517432   0.9956368  46.0996275  24.7488855   1.3300983
  48.3986362  34.2267779   9.3670740  47.5481992  34.3639493   9.5028385
  48.5614490  33.4931557   9.8118441  48.2970225  34.1381880   9.4526339
  47.6371112  31.1767548   3.5624344  46.8063042  31.3441366   3.3559592
  47.5822629  30.8003499   4.3473229  47.5060527  31.1457280   3.6472872
  45.4454896  24.6676441   9.1980755  46.0707599  24.1238574   9.4710187
  44.9905375  24.1871359   8.6288545  45.4703156  24.5165923   9.1542349
  59.0189944  32.8505728   4.2893403  59.6107785  33.4902979   4.3211601
  59.4548939  32.1528765   4.5785470  59.1708375  32.8424079   4.3374235
  50.8483334  37.2723101   4.9151297  50.3408425  37.8258948   5.3591927
  50.5509980  37.3331391   4.0970071  50.7288219  37.3629412   4.8599753
  53.0145516  25.6376420   3.7575960  53.4400588  25.1848947   3.1459486
  52.4002509  25.0836491   4.0340747  52.9874162  25.4890397   3.7080985
  56.0439086  30.0650947  -3.4103455  55.3730276  30.6080649  -3.5390389
  56.7378836  30.5345802  -3.6521760  56.0467953  30.2149218  -3.4647927
  50.0925819  42.2047659   1.8208304  49.8691474  41.4466488   2.1892330
  49.6035663  42.2345680   1.0988743  49.9869268  42.0969884   1.7685045
  56.2067213  26.5206831  -0.5013081  56.5594823  26.0936554   0.1732717
  55.3482015  26.4357674  -0.3712005  56.1316658  26.4451571  -0.3818071
  44.9050898  29.1514350  -2.4430235  44.1862887  29.5678483  -2.1757371
  45.2763260  29.7168589  -2.9938597  44.8542830  29.2963632  -2.4847428
  54.2050479  29.7842199   3.4471761  54.1848406  29.6025494   4.3006540
  54.2529680  30.6554218   3.4231344  54.2085120  29.8858737   3.5695056
  52.1496809  36.3729391   9.3720237  52.1092664  35.7279068   8.7865393
  52.9620127  36.3166009   9.6845649  52.2639962  36.2688358   9.3317187
  48.7404276  42.4248117  -0.7254612  48.3264675  41.7622247  -1.1150770
  49.4251651  42.5725976  -1.2458918  48.7802648  42.3488775  -0.8598115
  52.1069570  41.5838202   0.0269005  51.7085854  41.6940473  -0.7410175
  51.4920790  41.7920269   0.6095565  51.9568460  41.6311770   0.0000304
  53.5555289  28.1491855  -3.6755105  53.3268982  28.1724556  -4.5176747
  53.8153365  27.3249322  -3.5560095  53.5601477  28.0307935  -3.7829908
  47.8374517  30.0026328   5.9269995  47.3253421  29.3947511   6.2855026
  47.6654014  30.7182920   6.3943971  47.7364155  30.0189627   6.0486219
  42.6840232  28.4463903   8.5772357  42.5142822  29.1065278   8.0320563
  42.2406182  28.6570464   9.2984846  42.5939566  28.5749885   8.6033986
  46.6100052  26.6868401  -2.3800910  47.0857418  27.0485481  -3.0150728
  46.1088651  27.3424869  -2.1000767  46.6065411  26.8362590  -2.4324169
  51.7143588  27.9250572   8.3672251  52.2715018  27.6964382   7.7350716
  51.3904653  28.6856238   8.0907463  51.7489998  28.0034409   8.2328748
  39.5842297  31.3510769   3.8360847  39.0369016  30.6811414   3.9541715
  40.3734675  30.9840617   3.9004314  39.6194480  31.1975755   3.8629547
  56.2811995  27.1391792  -3.4251947  56.2806222  26.9840449  -2.5667671
  56.0768175  27.9854779  -3.4810561  56.2511773  27.2412413  -3.3064007
  38.3429266  30.5631576   0.9906870  38.1651027  30.1108185   1.7161785
  38.0548288  31.3657738   1.1745347  38.2742219  30.6154134   1.1250373
  54.0052847  31.8189294   0.2284260  54.5006513  31.1012289   0.1888280
  53.1952623  31.5160091   0.1138747  53.9596741  31.6686940   0.2057986
  40.0801736  33.0959300  -1.8971371  39.2147256  33.0844991  -2.0088600
  40.1800552  32.9089523  -1.0500232  39.9675903  33.0665361  -1.7882427
  56.0704666  34.5692981   2.9161389  56.4959738  34.0467403   2.3631814
  55.7061586  35.1673819   2.3950012  56.0791269  34.5803208   2.7570398
  45.7058746  42.8657199   1.6758734  46.0205305  43.6793587   1.6836516
  46.1152159  42.4807417   2.3440893  45.8126844  42.9285901   1.7762826
  52.6583266  38.2827246  -0.7537454  53.1294444  38.9967508  -0.5847469
  52.9943444  37.6825996  -0.2177584  52.7778381  38.2998710  -0.6505078
  54.7460250  39.8928559  11.4254618  54.8557216  39.1037120  11.7811365
  55.0751147  39.8034495  10.6228956  54.8112656  39.7634412  11.3597009
  49.5752761  23.0554716   6.2020641  49.7080666  22.2585710   6.5301617
  49.9597913  23.5821119   6.7818917  49.6509089  23.0154633   6.3364144
  53.2957212  38.0745180   6.0090239  52.7478158  37.4503063   5.7410304
  53.7570241  38.2639452   5.2934318  53.2824421  38.0104230   5.8640670
  52.6485116  19.9785042   2.8001734  51.8431079  19.8682772   3.1169573
  52.5191851  20.0797498   1.9431600  52.5105249  19.9768712   2.7209775
  56.1051076  26.1430534   3.3941431  55.5214065  26.6439741   2.9818999
  56.4255370  25.6360090   2.7605754  56.0664252  26.1422369   3.2399938
  47.2341207  23.0513891   4.4498535  47.7785620  22.7105018   5.0402876
  47.2878143  23.9099353   4.5919819  47.3230327  23.1269151   4.5580408
  43.0471766  36.8130307   1.3237343  43.6516623  36.7726141   0.6951163
  42.8399079  37.6601459   1.3541398  43.1060663  36.9318310   1.2353459
  52.8615538  39.0796252   2.5399580  53.6813912  38.9359218   2.8015875
  52.5809616  39.7042451   3.0816018  52.9412282  39.1506604   2.6587519
  38.2823048  35.7964925   1.1936266  38.1847326  34.9861196   1.5026322
  39.0651918  35.7756718   0.8082534  38.3839185  35.6732015   1.1823129
  53.9909901  43.5623882   0.8132032  53.3714933  42.9716530   0.6442047
  53.8893765  44.1535318   0.1796355  53.8847577  43.5627965   0.6937022
  53.7179034  47.1076164   3.0575601  53.5937731  47.6938610   3.6925420
  54.3697319  46.6136360   3.3587876  53.7952683  47.1214968   3.1961531
  57.1560242  47.0255585   8.4704626  57.3280746  46.9161480   9.3189907
  57.6929600  47.6709991   8.2335818  57.2605246  47.1047587   8.5609722
  63.0934944  54.9459836  10.4213702  63.8775360  55.0590684  10.7869444
  62.8931538  54.1200973  10.6172388  63.1800969  54.8406556  10.5048088
  51.4621959  49.6187516   3.3057546  51.1960374  48.8026633   3.4648536
  51.4760523  49.6640672   2.4353061  51.4246681  49.5044421   3.2011028
  56.2120565  43.1565895   5.9524553  55.5192362  42.6862874   6.1985285
  56.8280893  42.9304199   6.5266260  56.2005095  43.0533027   6.0733706
  54.9361124  47.1231299   7.0951399  55.6601097  47.1084329   7.5816293
  55.0377261  47.8326654   6.5973367  55.0579333  47.2256002   7.0930185
  62.3106074  50.6030383  11.9600346  61.5179055  50.9173895  12.1452965
  62.4255001  50.8181852  11.1221130  62.2101484  50.6814220  11.8638680
  61.2361586  44.9634964   4.2964113  60.8476019  44.5389182   3.6416304
  60.5716284  45.2117114   4.8041140  61.0808514  44.9373685   4.2751981
  65.0587948  38.6609593   1.8088097  65.4398459  37.9787764   2.1955971
  64.2551232  38.3719195   1.6263762  64.9964409  38.5176641   1.8392153
  59.0179788  41.1663791  11.6750706  58.7033229  41.9363354  11.4120268
  58.6969721  40.6034047  11.0902932  58.9238707  41.1974060  11.5492055
  65.6944574  39.7032172   5.6208224  66.4398166  39.5141982   5.2071649
  65.2781878  40.2290410   5.0622080  65.7429548  39.7534317   5.4772797
  58.6496293  43.7661042  10.4135920  57.8396069  44.0718822  10.3025763
  59.1270980  44.4866624  10.5288504  58.5999772  43.9175643  10.4142991
  54.9840325  49.3023592   5.2835323  55.4961422  49.5807846   4.6344082
  54.6976668  50.0412886   5.6498136  55.0175188  49.4525946   5.2425201
  58.5024051  41.3949981   5.3436364  58.3107248  41.4105115   6.1935788
  59.3522647  41.5913655   5.3203019  58.5999773  41.4264332   5.4659659
  52.8870964  43.9240962   3.3220181  52.7456456  43.0724903   3.4464689
  53.1711527  43.9669623   2.4982387  52.9078810  43.8040712   3.2187805
  59.0006583  48.4964771   6.8787652  59.1449959  49.0765979   6.2430762
  59.3482232  48.8741068   7.5837507  59.0734045  48.6385475   6.8886647
  61.4128278  41.5905490   5.5508187  61.8700892  42.3229465   5.6780980
  61.4884607  41.1671956   6.3095443  61.4919248  41.6362728   5.6809264
  53.6561269  41.8371310   6.6397631  53.1203458  41.2251668   6.9558398
  53.7179034  42.4119446   7.2931298  53.5856902  41.8318238   6.7833058
  59.2910656  43.5807594   2.3950011  58.5006730  43.3999054   2.7167347
  59.6871278  42.8034547   2.3780306  59.2327532  43.4395055   2.4402560
  61.8048486  46.0567853   6.8773510  61.7407627  46.9177810   6.7493647
  61.9445674  45.7399847   6.0769062  61.8163956  46.1368020   6.7401723
  66.1846277  52.8312575  12.4337961  66.9981142  52.5597724  12.5943094
  66.0241243  52.5320115  11.6298157  66.2816225  52.7467501  12.3383367
  63.4618439  43.5146232   5.3733349  63.6760408  42.8757146   4.8196703
  62.8452338  43.9592056   4.9441211  63.4023768  43.4856376   5.2283781
  65.6257527  45.1235297   6.3116657  64.8134209  44.8161188   6.3929829
  66.0847461  44.6434298   6.8759369  65.5737912  45.0071790   6.4071251
  62.8533167  36.6246168   0.3620692  61.9826725  36.5984889   0.3154002
  63.1073509  36.4523360  -0.4553462  62.7626728  36.5956312   0.2340829
  62.7211034  46.5295369  11.0945359  63.1910665  47.1537485  11.4813233
  62.7672914  45.8612344  11.6538574  62.7978910  46.5230049  11.2345430
  59.8782308  38.6352396   1.8194163  59.3620797  37.9432588   1.9445742
  59.3176237  39.3023173   1.7656761  59.7188821  38.6315654   1.8300229
  61.9474541  39.1745356   3.6487015  61.5606295  39.1994388   4.4300545
  61.4607479  38.6087035   3.1961532  61.8187050  39.0941107   3.6974919
  61.6131683  36.0612342   5.9397275  62.2424801  36.5972642   5.6618345
  61.7817546  35.9689701   6.7910841  61.7309478  36.1273704   6.0245803
  61.4145598  40.8483537   8.2123687  62.2419027  40.5768685   8.2682301
  61.4353444  41.6444378   8.5687505  61.5398448  40.9263291   8.2738870
  57.9267868  42.2159854   8.0525625  57.5353433  41.5693201   8.4881403
  58.0953731  42.8071290   8.6719880  57.8938779  42.2074122   8.2088331
  53.0672296  45.1782350   5.8605314  53.9297909  45.0778059   5.7742644
  52.7364079  44.5977059   5.2990886  53.1457493  45.0773977   5.7650720
  56.4274082  44.0024799   2.5215732  55.8027152  44.0143191   1.9141685
  56.0919677  44.4784974   3.1706972  56.2859574  44.0743316   2.5272301
  63.6385131  37.7779182   5.2941390  63.1425692  37.9742857   4.6032957
  64.3954193  38.1771851   5.1230192  63.6771955  37.8656916   5.1661527
  60.9088010  41.4521528   1.8844701  60.9330497  40.9181641   1.1957481
  61.1599484  40.9438837   2.5470291  60.9497929  41.2982432   1.8809345
  48.4195600  48.7353023   1.3187845  48.3139049  48.6899868   0.4539929
  47.6695820  49.0806804   1.6002130  48.2931203  48.7793931   1.2325175
  57.1889332  40.1792347   1.2650445  57.2287704  40.6801553   1.9785153
  56.3638997  40.2702740   0.9956368  57.0728858  40.2674163   1.3300983
  59.3718945  49.7453087   9.3670740  58.5214576  49.8824801   9.5028385
  59.5347073  49.0116865   9.8118441  59.2702809  49.6567188   9.4526339
  58.6103696  46.6952856   3.5624344  57.7795626  46.8626674   3.3559592
  58.5555213  46.3188807   4.3473229  58.4793111  46.6642588   3.6472872
  56.4187479  40.1861749   9.1980755  57.0440182  39.6423882   9.4710187
  55.9637959  39.7056667   8.6288545  56.4435740  40.0351231   9.1542349
  63.9878100  41.1561728   3.7575960  64.4133171  40.7034255   3.1459486
  63.3735093  40.6021799   4.0340747  63.9606745  41.0075705   3.7080985
  63.1229392  51.8914699   9.3720237  63.0825247  51.2464376   8.7865393
  63.9352711  51.8351317   9.6845649  63.2372546  51.7873666   9.3317187
  58.8107101  45.5211636   5.9269995  58.2986004  44.9132819   6.2855026
  58.6386597  46.2368228   6.3943971  58.7096738  45.5374935   6.0486219
  53.6572816  43.9649211   8.5772357  53.4875406  44.6250586   8.0320563
  53.2138766  44.1755772   9.2984846  53.5672149  44.0935193   8.6033986
  62.6876171  43.4435880   8.3672251  63.2447602  43.2149690   7.7350716
  62.3637236  44.2041546   8.0907463  62.7222582  43.5219717   8.2328748
  50.5574880  46.8696077   3.8360847  50.0101600  46.1996722   3.9541715
  51.3467258  46.5025924   3.9004314  50.5927064  46.7161063   3.8629547
  60.4059289  46.5303534   9.3324258  61.1570616  46.8455210   9.6463812
  60.5981865  46.3282705   8.5058179  60.5450703  46.5470915   9.2567653
  49.3161850  46.0816884   0.9906870  49.1383611  45.6293493   1.7161785
  49.0280872  46.8843046   1.1745347  49.2474803  46.1339442   1.1250373
  60.5485344  38.5740024   6.2020641  60.6813250  37.7771018   6.5301617
  60.9330497  39.1006427   6.7818917  60.6241673  38.5339941   6.3364144
  63.6217699  35.4970350   2.8001734  62.8163663  35.3868080   3.1169573
  63.4924435  35.5982806   1.9431600  63.4837832  35.4954020   2.7209775
  58.2073791  38.5699199   4.4498535  58.7518204  38.2290326   5.0402876
  58.2610727  39.4284661   4.5919819  58.2962910  38.6454459   4.5580408
   1.9298628  59.0177682  36.3980601   1.6152069  59.7081160  36.8301023
   1.4125570  58.9622464  35.6966101   1.8063099  59.1112570  36.3577550
   6.2213073  67.2398888  41.6801477   5.3841494  67.3101075  41.9149071
   6.1901304  67.2423382  40.8075779   6.0931355  67.2509115  41.5861025
   3.9020913  62.3041669  40.2645199   4.5446821  62.3739774  40.8507115
   4.1543934  61.6370892  39.7624741   4.0343045  62.2168018  40.2772479
   6.3402415  67.0786306  35.9957163   6.0838980  66.2666248  35.8055046
   7.1831729  67.0863874  35.7687350   6.4268441  66.9598304  35.9341980
   1.1562134  62.0608510  44.5453444   1.9015726  61.8718320  44.1316869
   0.7399438  62.5866748  43.9867300   1.2047108  62.1110655  44.4018017
   8.5324405  69.4317738  39.4958949   9.0832326  68.7985807  39.7356041
   8.5168520  69.9633131  40.1874453   8.6109601  69.4166686  39.6337807
   2.2352811  67.6714072  38.6063545   1.8917577  66.9504407  38.9570795
   2.3345853  67.4627923  37.7641903   2.1994854  67.5338275  38.5335225
   1.3473164  57.1271703  38.3447250   1.4656732  57.5848167  37.6114553
   1.1735339  56.3216965  38.0583468   1.3392335  57.0765475  38.1948184
   3.3842081  68.0984349  41.1971937   2.9569689  68.0110698  40.4420037
   2.7468134  68.2062125  41.7826781   3.2271688  68.1017009  41.1717379
   3.8206849  61.5056332  37.3130562   3.2081163  61.9926735  37.6984294
   3.9171024  60.8299823  37.8568214   3.7444747  61.4774641  37.4509421
   6.4158744  67.3791014  38.7803028   6.1768514  67.3386848  37.9423813
   6.5792645  68.2262166  38.9068749   6.4049047  67.4983099  38.6756510
   2.6417357  64.3968476  38.4232139   2.9944967  63.9698199  39.0977937
   1.7832158  64.3119320  38.5533215   2.5666801  64.3213217  38.5427149
   4.0741417  59.5186888  39.3516451   3.5672281  58.8116028  39.2837629
   4.8708850  59.1880077  39.4817528   4.1168656  59.3660040  39.3615446
   2.7162139  65.0153438  35.4993273   2.7156365  64.8602094  36.3577549
   2.5118319  65.8616425  35.4434659   2.6861917  65.1174059  35.6181213
   2.5401220  64.0192180  42.3186651   1.9564209  64.5201387  41.9064219
   2.8605514  63.5121736  41.6850974   2.5014395  64.0184015  42.1645158
   4.4897573  46.0315573  21.3627723   4.4591577  46.8860210  21.5345993
   5.0878921  45.7310866  21.9213867   4.5734730  46.1132070  21.4702526
   0.9990974  51.3877750  35.7241110   1.7057741  50.8929781  35.8528044
   1.1878909  51.8286831  34.9943768   1.1318880  51.3796100  35.6350155
   2.3114147  48.6067875  19.6346033   2.1953673  49.3575561  20.0638171
   3.1070034  48.3491829  19.8842120   2.4118737  48.6802722  19.7350125
   1.6249452  35.9555813  23.3320647   1.3102893  36.6459291  23.7641070
   1.1076394  35.9000595  22.6306148   1.5013922  36.0490701  23.2917597
   6.4209939  51.5306618  24.8191102   5.5907642  51.7417262  24.9824519
   6.3719191  50.7043673  24.5433386   6.2916674  51.4396224  24.8028468
   5.9163897  44.1777019  28.6141524   5.0792318  44.2479206  28.8489118
   5.8852128  44.1801514  27.7415826   5.7882179  44.1887246  28.5201072
   0.6394083  48.3732695  24.2053415   1.3951598  48.8064210  24.2442324
   0.7456407  47.7237465  24.7788051   0.7664253  48.3410179  24.2951441
   3.6774254  52.2005973  24.9555818   3.2409486  52.2042715  25.7114790
   3.3437169  52.8811472  24.5235396   3.5636874  52.3018428  25.0036651
   3.5971737  39.2419800  27.1985246   4.2397645  39.3117905  27.7847161
   3.8494758  38.5749023  26.6964788   3.7293869  39.1546149  27.2112525
   6.8118600  48.9186892  23.8475456   7.4735034  48.3577561  23.7471364
   6.1710012  48.4238923  24.1728147   6.8147468  48.7623301  23.8807796
   3.0983431  49.9352275  23.5887444   3.3339020  50.0797474  22.7614295
   3.2472995  50.6994683  23.9818958   3.1549234  50.0691329  23.5251048
   4.9273888  48.7753941  21.4257048   5.2582105  49.3081581  20.8197143
   5.5006976  48.8292829  22.0818999   5.0607567  48.8623510  21.4334830
   6.0353239  44.0164438  22.9297210   5.7789804  43.2044379  22.7395093
   6.8782553  44.0242005  22.7027397   6.1219265  43.8976435  22.8682027
   3.7178398  51.1714034  32.7655762   3.4817036  50.3402099  32.6467823
   4.3621627  51.1199641  33.3510607   3.7773069  51.0411722  32.8341656
   4.7414819  50.9558482  28.8284057   4.4360636  51.6886539  29.1897372
   4.0221035  50.5496412  28.5476843   4.5902161  51.0040215  28.8397194
  10.4416611  47.5951483  28.1552401  10.3741111  47.6147442  27.2854988
  10.4272274  48.4381810  28.3808072  10.4295368  47.7225218  28.0604878
   8.2275229  46.3695869  26.4298995   8.7783150  45.7363938  26.6696088
   8.2119344  46.9011262  27.1214500   8.3060425  46.3544818  26.5677854
   1.9303635  44.6092203  25.5403592   1.5868401  43.8882538  25.8910841
   2.0296677  44.4006054  24.6981950   1.8945678  44.4716406  25.4675272
   2.3916664  51.0717907  21.0827580   2.9574696  51.7311117  20.9986123
   1.7444567  51.4167605  21.5543982   2.3795420  51.2199848  21.1400336
   4.3252124  47.7351775  24.7024376   4.2386098  47.8907201  25.5559155
   3.8702604  48.3789850  24.3283781   4.2455381  47.8527530  24.7731483
   2.0925989  51.7645881  27.1136717   1.9540348  52.4626927  27.6185459
   1.3125987  51.6094537  26.7572899   1.9569216  51.8446048  27.1362991
   3.5879362  51.1224135  17.8753216   3.2086170  50.3361273  17.8682506
   2.9245607  51.6710992  17.7324861   3.4337836  51.0868959  17.8534013
   1.0423988  34.0649835  25.2787297   1.1607556  34.5226298  24.5454600
   0.8686163  33.2595096  24.9923515   1.0343159  34.0143607  25.1288231
   1.8339460  53.3669626  18.2104902   1.9159298  54.1736612  17.8866353
   2.3189203  53.3865585  18.9345676   1.9176618  53.4890288  18.2691801
   1.3414661  52.1267044  38.2923228   2.1549526  51.8552193  38.4528361
   1.1809627  51.8274584  37.4883424   1.4384609  52.0421970  38.1968634
   1.3535905  53.1873334  33.5646069   1.9915625  52.6933530  33.2308525
   0.7109996  53.1150735  32.9798295   1.3530131  53.1032343  33.4288424
   3.0792905  45.0362480  28.1311984   2.6520513  44.9488829  27.3760084
   2.4418958  45.1440256  28.7166828   2.9222512  45.0395140  28.1057426
   1.4090161  53.8793143  30.2051425   2.1982540  53.5282207  30.3253507
   1.5833759  54.6929531  29.9428059   1.5510443  53.9479000  30.1839293
   3.5157673  38.4434464  24.2470609   2.9031987  38.9304866  24.6324341
   3.6121848  37.7677954  24.7908260   3.4395571  38.4152772  24.3849467
   7.1582701  49.5151400  29.6748125   7.2165825  49.9638049  30.4208102
   6.5249169  49.9250213  29.2378205   7.0733996  49.6425135  29.7200674
   4.1104381  47.5367688  27.7613816   3.8702604  46.6974103  27.7656242
   4.5896388  47.6167855  28.4854589   4.1456564  47.4249088  27.8688618
   6.1109568  44.3169145  25.7143075   5.8719338  44.2764979  24.8763859
   6.2743469  45.1640297  25.8408796   6.0999871  44.4361230  25.6096557
   2.7155598  48.7019095  31.6448120   3.4389797  48.2491621  31.4659140
   2.4505560  48.9823760  30.8620448   2.7836871  48.6770063  31.5026835
   5.1490912  47.6645505  30.1478670   5.7408752  48.3042756  30.1796868
   5.5849906  46.9668542  30.4370736   5.3009343  47.6563856  30.1959502
   2.1740053  44.8790724  22.4481812   1.5031243  45.4220426  22.3194878
   2.8679803  45.3485579  22.2063507   2.1768921  45.0288995  22.3937340
   2.3368181  41.3346608  25.3572185   2.6895791  40.9076331  26.0317984
   1.4782982  41.2497451  25.4873262   2.2617625  41.2591348  25.4767196
   3.7692241  36.4565019  26.2856498   3.2623105  35.7494159  26.2177675
   4.5659674  36.1258208  26.4157574   3.8119480  36.3038171  26.2955493
   5.9712381  50.9729946  19.2697362   6.3545986  51.7221302  19.4995459
   5.1756494  51.2195766  19.0109351   5.9106163  51.1199640  19.2654936
   2.4112963  41.9531569  22.4333320   2.4107189  41.7980226  23.2917596
   2.2069143  42.7994556  22.3774706   2.3812741  42.0552190  22.5521259
   2.2005634  49.3832758  28.7746656   2.6260705  48.8607180  28.2217081
   1.8362554  49.9813596  28.2535279   2.2092236  49.3942985  28.6155665
   0.8761218  54.7068336  37.2839885   0.9858183  53.9176897  37.6396632
   1.2052114  54.6174272  36.4814223   0.9413624  54.5774189  37.2182276
   2.2352044  40.9570311  29.2526698   1.6515033  41.4579518  28.8404265
   2.5556338  40.4499867  28.6191021   2.1965219  40.9562146  29.0985205
  15.4630156  61.5500881  21.3627723  15.4324160  62.4045518  21.5345993
  16.0611505  61.2496174  21.9213867  15.5467314  61.6317378  21.4702526
   8.6629841  60.6376532  26.1180654   7.8067736  60.7985030  26.1689770
   8.7097495  59.7668596  26.1385715   8.5428952  60.5327334  26.1286720
  11.9723558  66.9063058  35.7241110  12.6790325  66.4115089  35.8528044
  12.1611493  67.3472139  34.9943768  12.1051463  66.8981408  35.6350155
  11.5081662  62.6968576  28.7612305  12.0537622  63.3753663  28.8206275
  11.4498538  62.5556037  27.9013887  11.5797576  62.7760578  28.6424366
  13.2846731  64.1253183  19.6346033  13.1686257  64.8760869  20.0638171
  14.0802617  63.8677136  19.8842120  13.3851320  64.1988030  19.7350125
   7.2178764  60.1163201  21.0049762   7.9158929  60.2951329  21.4971225
   7.5331097  59.5933540  20.3820152   7.3674101  60.0656973  20.9851772
   7.4066700  66.5033646  20.9929554   7.8460335  65.8950747  21.4384326
   7.2571362  66.1241019  20.2215019   7.4488165  66.3572117  20.9448721
   4.8738343  65.0977658  28.1948379   5.5187345  64.6050101  27.8759328
   5.1140120  65.2402445  29.0214457   5.0048928  65.0455100  28.2697912
   7.4124434  67.9432564  27.8455272   7.6947677  67.1483970  27.6242028
   8.1410594  68.4213151  27.8660333   7.5613998  67.8967161  27.8158287
   5.3905628  55.4855598  25.0871037   5.0608958  55.9366741  24.4174736
   4.7150630  55.4071761  25.6344043   5.2416064  55.5406733  25.0694260
  11.0076036  64.8560827  17.9460323  10.9227331  65.7121794  18.0909892
  11.4960419  64.5805152  18.6142482  11.0664933  64.9418149  18.0662404
  12.5982036  51.4741121  23.3320647  12.2835477  52.1644599  23.7641070
  12.0808977  51.4185903  22.6306148  12.4746506  51.5676009  23.2917597
  11.9394469  61.4745622  19.4458058  11.4105941  61.6905255  20.1055364
  12.4619489  62.1681760  19.3659027  11.9382922  61.6088759  19.5313657
  17.3942522  67.0491926  24.8191102  16.5640225  67.2602570  24.9824519
  17.3451775  66.2228981  24.5433386  17.2649258  66.9581532  24.8028468
   9.1115852  70.3290594  33.6155185   9.1999198  70.1416735  34.4633395
   9.5405564  69.6828024  33.2160032   9.1877954  70.2053602  33.6826937
   8.2871292  61.6174490  16.7234447   8.5267295  61.8252474  15.9109790
   8.6087133  60.8131999  16.8323391   8.3708450  61.5288592  16.6195000
   3.5961582  53.5467886  20.5693985   4.3507550  53.9146203  20.3311035
   3.4189116  53.9207441  21.3373164   3.6816060  53.6566074  20.6478873
  16.8896481  59.6962327  28.6141524  16.0524902  59.7664514  28.8489118
  16.8584712  59.6986822  27.7415826  16.7614763  59.7072554  28.5201072
   3.2861210  61.8395362  34.3289892   3.4581713  61.7301257  35.1775174
   3.8230567  62.4849768  34.0921085   3.3906214  61.9187364  34.4194989
   7.6318366  52.9564616  20.3021121   8.3604526  52.7780571  19.8559278
   7.7213259  53.7982696  20.5128299   7.7525028  53.0548494  20.2674639
  11.6126666  63.8918003  24.2053415  12.3684181  64.3249518  24.2442324
  11.7188991  63.2422773  24.7788051  11.7396837  63.8595487  24.2951441
  14.6506838  67.7191281  24.9555818  14.2142069  67.7228023  25.7114790
  14.3169753  68.3996779  24.5235396  14.5369457  67.8203736  25.0036651
   9.2235911  69.7599613  36.2798969  10.0076328  69.8730461  36.6454711
   9.0232506  68.9340750  36.4757654   9.3101937  69.6546333  36.3633355
  14.5704320  54.7605108  27.1985246  15.2130229  54.8303213  27.7847161
  14.8227341  54.0934331  26.6964788  14.7026453  54.6731457  27.2112525
   2.3421533  57.9705672  31.8109820   1.6493330  57.5002651  32.0570552
   2.9581860  57.7443976  32.3851527   2.3306063  57.8672804  31.9318973
  17.7851184  64.4372200  23.8475456  18.4467618  63.8762869  23.7471364
  17.1442596  63.9424231  24.1728147  17.7880051  64.2808609  23.8807796
  14.0716014  65.4537583  23.5887444  14.3071604  65.5982782  22.7614295
  14.2205578  66.2179991  23.9818958  14.1281818  65.5876637  23.5251048
   1.0662092  61.9371076  32.9536665   1.7902064  61.9224106  33.4401560
   1.1678228  62.6466431  32.4558634   1.1880301  62.0395779  32.9515452
  15.9006471  64.2939249  21.4257048  16.2314688  64.8266889  20.8197143
  16.4739559  64.3478136  22.0818999  16.0340150  64.3808818  21.4334830
   8.4407041  65.4170160  37.8185612   7.6480022  65.7313672  38.0038232
   8.5555968  65.6321629  36.9806397   8.3402452  65.4953997  37.7223947
  11.1138360  62.1404151  22.1080628  11.2085215  62.8793446  22.5620254
  10.4897204  61.7121627  22.5415193  11.0347390  62.1865472  22.2388776
   9.3690834  65.3190364  32.7570909   9.9429696  64.6817608  32.9119473
   9.2905638  65.3194446  31.8880567   9.4424069  65.2255475  32.6517320
  11.3661382  63.9852891  15.3417580  11.2841544  64.0555078  16.2072567
  12.0041102  64.5482635  15.1501321  11.4481219  64.0791862  15.4407530
   4.7254553  63.7513629  24.8092107   4.4673797  62.9185364  24.7823406
   4.7803036  63.9771242  23.9684607   4.6954331  63.6611400  24.6812243
   9.8055603  55.8542080  24.9096199   9.1011930  55.3651265  25.0680118
   9.8540577  55.8664554  24.0384644   9.7085654  55.7831728  24.8035539
   3.6989265  61.3051392  25.2957001   3.1238856  61.4643560  25.9320962
   3.3224941  60.6686801  24.8325452   3.5592077  61.2349205  25.3211560
   7.3662554  59.7774741  30.1549380   6.9776986  59.3528959  29.5001571
   6.7017252  60.0256891  30.6626406   7.2109481  59.7513462  30.1337248
  17.0085823  59.5349746  22.9297210  16.7522388  58.7229687  22.7395093
  17.8515137  59.5427313  22.7027397  17.0951848  59.4161743  22.8682027
  11.1888915  53.4749370  27.6673364  11.5699427  52.7927541  28.0541238
  10.3852199  53.1858972  27.4849028  11.1265377  53.3316418  27.6977420
   8.4701492  64.0073346  18.3526187   9.2842131  64.2988238  18.2408958
   8.4060633  63.3533208  17.7784480   8.5804231  63.9538540  18.2515024
  14.6910982  66.6899342  32.7655762  14.4549619  65.8587406  32.6467823
  15.3354211  66.6384949  33.3510607  14.7505653  66.5597030  32.8341656
   4.3409400  67.4794863  23.4798499   4.9783347  67.2406610  24.0250292
   4.7664472  67.6832022  22.7451659   4.4985566  67.4745873  23.4515656
   5.1480756  55.9803568  37.5335972   4.8334197  56.7503131  37.2705535
   4.8270688  55.4173824  36.9488199   5.0539675  56.0113837  37.4077322
  15.7147403  66.4743790  28.8284057  15.4093220  67.2071847  29.1897372
  14.9953618  66.0681720  28.5476843  15.5634745  66.5225523  28.8397194
   6.7230872  67.9567286  25.1592285   6.7969880  67.7942457  26.0134135
   7.5400378  68.1457475  24.9152767   6.8547231  67.9604028  25.2490311
  21.4149195  63.1136791  28.1552401  21.3473695  63.1332750  27.2854988
  21.4004857  63.9567118  28.3808072  21.4027951  63.2410526  28.0604878
   2.7012652  54.3694089  23.1482169   1.8335078  54.4416689  23.2139778
   2.9887857  55.1716168  23.3370144   2.6152401  54.4988236  23.1856935
  11.8245541  54.5171949  31.4793491  12.5699133  54.3281759  31.0656916
  11.4082846  55.0430187  30.9207347  11.8730515  54.5674094  31.3358064
  19.2007812  61.8881177  26.4298995  19.7515734  61.2549246  26.6696088
  19.1851927  62.4196570  27.1214500  19.2793008  61.8730125  26.5677854
   5.8530203  65.7219775  30.9758889   5.3541897  66.4335542  31.0543777
   6.6630427  66.0420441  30.9377051   5.8986310  65.8746623  30.9815457
   2.1158321  64.9842728  25.2221610   1.8271569  64.3580199  25.7567337
   2.9841669  64.9263015  25.2886290   2.2018572  64.8830272  25.3112564
  12.9036218  60.1277511  25.5403592  12.5600984  59.4067846  25.8910841
  13.0029261  59.9191362  24.6981950  12.8678261  59.9901714  25.4675272
  13.3649247  66.5903215  21.0827580  13.9307280  67.2496425  20.9986123
  12.7177151  66.9352913  21.5543982  13.3528004  66.7385156  21.1400336
   4.7797261  58.5800819  36.2721187   3.9697037  58.8858599  36.1611029
   5.2571948  59.3006401  36.3873771   4.7300740  58.7315420  36.2728258
   3.6388821  67.7946540  26.5204090   3.1169574  67.9346832  27.2055955
   4.0262841  67.0357204  26.7106208   3.6192521  67.7032064  26.6505167
   9.8355825  69.5341999  20.5064659   9.5942501  68.8009860  20.0991724
  10.0157158  70.0828856  19.8530992   9.8263449  69.5064390  20.3494882
   5.0655146  64.8250559  21.9185581   4.8697929  65.4325294  21.3245884
   5.2889492  64.1318503  21.4377255   5.0689787  64.8128085  21.7601662
   3.4633676  61.7105297  22.0366450   4.1856328  61.8746455  21.5770256
   2.9841669  62.4314962  21.9305789   3.4997407  61.8403526  21.9532064
  11.4227184  58.0469096  27.4163135  10.5838284  58.0730375  27.1801398
  11.4931551  58.6939831  27.9968481  11.3095577  58.1465222  27.4672251
   1.1141293  64.1163369  31.1420590   1.6262390  64.3947623  30.4929349
   0.8277635  64.8552663  31.5083403   1.1476156  64.2665723  31.1010468
   9.8696462  54.9454473  22.1490751  10.5722815  54.7462221  21.6710709
   9.6040651  54.1730415  22.4559594   9.9343094  54.8017439  22.1236192
  15.2984708  63.2537082  24.7024376  15.2118682  63.4092509  25.5559155
  14.8435187  63.8975158  24.3283781  15.2187964  63.3712838  24.7731483
   4.6325018  56.2089758  31.2021631   4.4408215  56.2244892  32.0521055
   5.4823614  56.4053432  31.1788286   4.7300740  56.2404109  31.3244926
   9.1710524  60.5747830  23.3249936   8.9245238  60.4943580  24.1586725
   9.4995647  59.7901297  23.1312463   9.1831767  60.4474095  23.4197459
  13.0658572  67.2831189  27.1136717  12.9272932  67.9812235  27.6185459
  12.2858570  67.1279845  26.7572899  12.9301799  67.3631356  27.1362991
  11.4036658  63.5827564  33.3659099  11.3984696  62.7107381  33.3701525
  12.1097651  63.7815733  32.8928554  11.5081662  63.4831438  33.2966134
   5.1307551  63.3104548  32.7372919   5.2750927  63.8905756  32.1016029
   5.4783199  63.6880845  33.4422774   5.2035012  63.4525252  32.7471914
   7.3027468  62.5094717  30.5198051   6.5550782  62.7025731  30.1146329
   7.4568993  61.6839936  30.2822172   7.2149896  62.4159828  30.4243456
  14.5611945  66.6409443  17.8753216  14.1818754  65.8546581  17.8682506
  13.8978191  67.1896300  17.7324861  14.4070420  66.6054267  17.8534013
   7.5429245  56.4045267  31.4093454   8.0001859  57.1369242  31.5366246
   7.6185574  55.9811733  32.1680710   7.6220215  56.4502505  31.5394531
  12.0156571  49.5835142  25.2787297  12.1340139  50.0411606  24.5454600
  11.8418747  48.7780404  24.9923515  12.0075742  49.5328915  25.1288231
   5.4211623  58.3947371  28.2535278   4.6307698  58.2138831  28.5752614
   5.8172246  57.6174324  28.2365573   5.3628499  58.2534832  28.2987827
  10.8055309  66.0289801  25.9794724  10.1300311  65.7975034  26.4808111
  10.8147686  65.4210984  25.3536829  10.7073814  65.9048727  25.9610876
   7.9349453  60.8707630  32.7358777   7.8708595  61.7317587  32.6078914
   8.0746641  60.5539624  31.9354328   7.9464924  60.9507797  32.5986990
  12.8072044  68.8854934  18.2104902  12.8891881  69.6921920  17.8866353
  13.2921786  68.9050893  18.9345676  12.8909202  69.0075596  18.2691801
   6.6168547  63.5639770  26.8774980   6.1930796  63.7644269  26.1413998
   6.4413403  62.7168618  26.9899280   6.5279428  63.4688551  26.7848670
   1.9050992  64.0591821  22.3102953   2.0615611  63.9938624  23.1658945
   2.2451585  64.8340374  22.0981632   1.9784227  64.1641019  22.4057547
   8.4430137  63.4349705  21.1796316   8.9845682  62.9320086  21.6434936
   8.7576696  63.3814899  20.3685801   8.5694534  63.3529126  21.1280128
  12.3147244  67.6452352  38.2923228  13.1282110  67.3737501  38.4528361
  12.1542211  67.3459892  37.4883424  12.4117193  67.5607278  38.1968634
   9.5919406  58.3286009  31.2318616   9.8061376  57.6896923  30.6781970
   8.9753305  58.7731833  30.8026478   9.5324736  58.2996153  31.0869047
  11.7558494  59.9375074  32.1701923  10.9435176  59.6300965  32.2515096
  12.2148429  59.4574074  32.7344636  11.7038879  59.8211567  32.2656518
  11.1663749  67.8154746  22.6178868  10.8078404  67.9869389  23.3942900
  10.6802460  68.2767952  22.0606866  11.0422446  67.9093717  22.6504137
   8.9834135  51.4385945  26.2205959   8.1127693  51.4124666  26.1739269
   9.2374476  51.2663137  25.4031805   8.8927695  51.4096089  26.0926096
   8.8512002  61.3435146  36.9530626   9.3211633  61.9677262  37.3398500
   8.8973882  60.6752121  37.5123840   8.9279878  61.3369826  37.0930697
   6.0083275  53.4492173  27.6779429   5.4921764  52.7572365  27.8031008
   5.4477204  54.1162950  27.6242028   5.8489789  53.4455431  27.6885495
   8.0775509  53.9885133  29.5072282   7.6907262  54.0134165  30.2885812
   7.5908446  53.4226812  29.0546799   7.9488018  53.9080884  29.5560186
  12.3268488  68.7058642  33.5646069  12.9648209  68.2118838  33.2308525
  11.6842580  68.6336043  32.9798295  12.3262715  68.6217651  33.4288424
  14.0525488  60.5547788  28.1311984  13.6253097  60.4674137  27.3760084
  13.4151541  60.6625564  28.7166828  13.8955096  60.5580448  28.1057426
   7.7432651  50.8752119  31.7982542   8.3725769  51.4112419  31.5203612
   7.9118513  50.7829478  32.6496108   7.8610445  50.9413481  31.8831070
   7.5446566  55.6623314  34.0708954   8.3719995  55.3908462  34.1267568
   7.5654412  56.4584155  34.4272772   7.6699416  55.7403068  34.1324136
  12.3822745  69.3978451  30.2051425  13.1715123  69.0467515  30.3253507
  12.5566343  70.2114839  29.9428059  12.5243027  69.4664308  30.1839293
   2.1216055  62.8087176  27.2579214   1.2804062  62.7091050  27.4658108
   2.3306063  63.5782657  27.6093535   2.0280748  62.9079220  27.3406529
  11.2356569  53.4088007  24.7667844  11.4406162  53.3410315  25.6124841
  10.9082993  54.2146828  24.6989021  11.2171817  53.5173948  24.8827499
   5.9332720  60.7368576  26.5076812   5.6295858  60.1824564  27.1087219
   5.2312141  60.9160785  26.0204846   5.7848930  60.6813358  26.5246517
   4.9898817  58.0469095  21.0721514   5.2658552  57.3288008  20.6599081
   5.5897487  58.6454015  20.8642620   5.1192082  58.0289466  20.9802275
  14.4890257  53.9619772  24.2470609  13.8764570  54.4490174  24.6324341
  14.5854432  53.2863262  24.7908260  14.4128154  53.9338080  24.3849467
   8.4909338  55.7182613  19.3468109   8.9453084  55.8893173  20.0715953
   8.9649384  55.1050723  18.9465884   8.6277658  55.6533498  19.3941870
   2.0124863  65.2030939  28.6770847   1.4212796  65.8440437  28.6473862
   2.7745887  65.6268556  28.6502147   2.0373124  65.3606777  28.6685994
   2.4085486  56.3632936  29.3438865   2.8686968  56.4371866  30.0813988
   2.4541593  57.1614190  28.9938686   2.4836041  56.4927083  29.4011621
   4.0568836  57.0299631  33.9110892   3.6654401  56.3832978  34.3466670
   4.2254698  57.6211067  34.5305147   4.0239746  57.0213899  34.0673598
  18.1315285  65.0336708  29.6748125  18.1898408  65.4823357  30.4208102
  17.4981752  65.4435521  29.2378205  18.0466580  65.1610443  29.7200674
  11.7714379  70.6540250  26.1102872  11.5734068  71.1431065  25.4159083
  11.1502091  70.8581492  26.6887005  11.6501944  70.7556788  26.0926095
   5.8322358  62.4225147  20.4513116   6.5764403  62.8099423  20.6896066
   5.9783054  61.5782572  20.6153604   5.9632943  62.3555620  20.5107086
   7.7501933  54.2175406  25.4844977   6.9037978  54.3898214  25.3586327
   7.7473066  53.4124750  25.8210806   7.6249083  54.1236435  25.5156104
   8.8200234  57.9950620  26.3507035   8.3460188  57.4692382  26.8612346
   9.1918369  57.4480093  25.7821897   8.8050123  57.8366617  26.3422182
  15.0836964  63.0552996  27.7613816  14.8435187  62.2159411  27.7656242
  15.5628971  63.1353163  28.4854589  15.1189148  62.9434396  27.8688618
  10.7483733  58.8887175  19.4132789  10.2206752  58.9715919  18.7238498
  11.2079441  59.6305046  19.4097434  10.7385584  59.0107837  19.3107484
  17.0842151  59.8354453  25.7143075  16.8451921  59.7950287  24.8763859
  17.2476053  60.6825605  25.8408796  17.0732455  59.9546538  25.6096557
  13.6888181  64.2204402  31.6448120  14.4122380  63.7676929  31.4659140
  13.4238144  64.5009068  30.8620448  13.7569455  64.1955371  31.5026835
   2.5575050  58.8164576  28.3800999   1.9328120  58.8282968  27.7726952
   2.2220645  59.2924751  29.0292239   2.4160542  58.8883093  28.3857568
  10.3020816  67.4590738  18.5442446  11.0255015  67.9248851  18.4007019
   9.8621407  67.5264348  17.7940043  10.3436508  67.5374575  18.4127227
   9.4706971  64.3188281  29.7943135   8.8563964  63.7746331  30.0891770
   9.9874256  63.8052517  29.3148951   9.4562633  64.1624690  29.7667363
   8.7103268  65.3892551  27.5287434   8.2830876  64.7642269  27.0952869
   8.7028212  65.1067473  28.3546441   8.6462409  65.2545331  27.5867261
   1.8265795  60.4257724  30.5975868   1.9859282  59.6701048  31.0027590
   1.6458689  60.9748663  31.2516605   1.8231154  60.3951538  30.7538574
   9.7686098  52.5918959  31.1526657   9.2726659  52.7882634  30.4618224
  10.5255160  52.9911628  30.9815459   9.8072923  52.6796693  31.0246794
   7.0388978  56.2661305  27.7429968   7.0631465  55.7321418  27.0542748
   7.2900451  55.7578614  28.4055558   7.0798896  56.1122209  27.7394612
   3.3190300  54.9932124  27.1235712   3.3588672  55.4941330  27.8370419
   2.4939965  55.0842517  26.8541635   3.2029826  55.0813940  27.1886250
   5.5019913  64.5592864  35.2256007   4.6515543  64.6964578  35.3613651
   5.6648041  63.8256642  35.6703708   5.4003776  64.4706965  35.3111606
   4.7404663  61.5092633  29.4209611   3.9096593  61.6766451  29.2144859
   4.6856181  61.1328584  30.2058496   4.6094078  61.4782365  29.5058139
   2.5488447  55.0001526  35.0566022   3.1741150  54.4563659  35.3295454
   2.0938927  54.5196444  34.4873812   2.5736707  54.8491008  35.0127615
   3.1140707  59.7848225  19.9499729   3.2543668  60.2820689  20.6528370
   3.6123240  59.0834519  20.0913942   3.2081788  59.7550204  20.0751308
  16.1223495  63.1830813  30.1478670  16.7141336  63.8228064  30.1796868
  16.5582490  62.4853850  30.4370736  16.2741927  63.1749164  30.1959502
   4.7219912  56.5829311  17.2537747   5.0435754  56.1032394  16.5997010
   4.9846856  57.3928957  17.0628559   4.8085938  56.6319209  17.1293240
   7.9516885  67.6048186  30.7736564   7.4441976  68.1584033  31.2177194
   7.6543531  67.6656476  29.9555338   7.8321770  67.6954497  30.7185020
  10.1179067  55.9701505  29.6161227  10.5434139  55.5174032  29.0044753
   9.5036061  55.4161576  29.8926014  10.0907713  55.8215482  29.5666252
   8.5573290  52.4416605  23.0251804   7.9141608  52.2914251  23.5936942
   8.2172697  52.1958950  22.2600908   8.4118368  52.3828728  22.9954819
  13.1472637  60.3976032  22.4481812  12.4763827  60.9405734  22.3194878
  13.8412387  60.8670887  22.2063507  13.1501504  60.5474303  22.3937340
  13.3100764  56.8531916  25.3572185  13.6628374  56.4261638  26.0317984
  12.4515566  56.7682759  25.4873262  13.2350209  56.7776656  25.4767196
   2.0084449  59.4839435  23.4155032   1.2896438  59.9003568  23.6827895
   2.3796811  60.0493674  22.8646670   1.9576381  59.6288717  23.3737839
  11.3084030  60.1167284  29.3057028  11.2881957  59.9350579  30.1591806
  11.3563231  60.9879303  29.2816611  11.3118671  60.2183822  29.4280322
   9.2530360  66.7054476  35.2305504   9.2126215  66.0604153  34.6450660
  10.0653678  66.6491094  35.5430916   9.3673513  66.6013443  35.1902453
   7.7831024  58.5237435  18.7528411   7.1895863  58.8454432  18.2012978
   7.8206301  57.6778531  18.5449518   7.7005413  58.4461763  18.6411183
  14.7424824  51.9750327  26.2856498  14.2355689  51.2679467  26.2177675
  15.5392258  51.6443516  26.4157574  14.7852064  51.8223479  26.2955493
  10.6588840  58.4816940  22.1830162  10.4302533  58.5049641  21.3408520
  10.9186916  57.6574407  22.3025172  10.6635028  58.3633020  22.0755359
   4.9408069  60.3351413  31.7855262   4.4286972  59.7272596  32.1440293
   4.7687565  61.0508005  32.2529238   4.8397706  60.3514712  31.9071485
   3.7133603  57.0193486  23.4784357   4.1890969  57.3810566  22.8434538
   3.2122202  57.6749954  23.7584500   3.7098962  57.1687675  23.4261098
  16.9444964  66.4915254  19.2697362  17.3278570  67.2406610  19.4995459
  16.1489078  66.7381074  19.0109351  16.8838746  66.6384948  19.2654936
   8.8177139  58.2575657  34.2257517   9.3748569  58.0289467  33.5935983
   8.4938204  59.0181323  33.9492730   8.8523549  58.3359494  34.0914014
   6.5360256  61.3443311  35.1909525   7.2871583  61.6594987  35.5049079
   6.7282833  61.1422482  34.3643446   6.6751670  61.3610692  35.1152920
   5.7560256  59.1634686  16.8457741   6.1359221  59.1814315  16.0608856
   5.0152852  59.6088675  16.7248589   5.7029094  59.2316460  16.7121309
  13.3845546  57.4716877  22.4333320  13.3839773  57.3165534  23.2917596
  13.1801726  58.3179864  22.3774706  13.3545324  57.5737498  22.5521259
  11.1086398  62.1514379  26.0869527  11.6040064  61.4337374  26.0473547
  10.2986174  61.8485176  25.9724014  11.0630292  62.0012025  26.0643253
  13.1738217  64.9018066  28.7746656  13.5993289  64.3792488  28.2217081
  12.8095137  65.4998904  28.2535279  13.1824820  64.9128293  28.6155665
   9.7616817  68.6152331  25.1047813  10.2327995  69.3292593  25.2737798
  10.0976995  68.0151081  25.6407683   9.8811932  68.6323795  25.2080189
  11.8493801  70.2253644  37.2839885  11.9590767  69.4362204  37.6396632
  12.1784698  70.1359580  36.4814223  11.9146207  70.0959497  37.2182276
   6.6786312  53.3879801  32.0605908   6.8114217  52.5910794  32.3886883
   7.0631464  53.9146204  32.6404183   6.7542641  53.3479718  32.1949411
  10.3990763  68.4070265  31.8675506   9.8511709  67.7828148  31.5995571
  10.8603792  68.5964537  31.1519585  10.3857972  68.3429315  31.7225937
   9.7518667  50.3110127  28.6587001   8.9464631  50.2007857  28.9754839
   9.6225402  50.4122583  27.8016867   9.6138800  50.3093797  28.5795041
  13.2084627  56.4755619  29.2526698  12.6247616  56.9764826  28.8404265
  13.5288921  55.9685175  28.6191021  13.1697803  56.4747454  29.0985205
   5.7479427  55.3896214  19.5285373   6.5695121  55.5594527  19.2867068
   5.2849077  55.5443475  18.8051670   5.8010589  55.4377947  19.3857017
   4.3374758  53.3838976  30.3083802   4.8819171  53.0430103  30.8988143
   4.3911694  54.2424438  30.4505086   4.4263878  53.4594236  30.4165675
   9.9649089  69.4121337  28.3984847  10.7847463  69.2684303  28.6601142
   9.6843167  70.0367536  28.9401285  10.0445833  69.4831689  28.5172786
  16.3638211  71.0040906  25.0871037  16.0341541  71.4552049  24.4174736
  15.6883213  70.9257069  25.6344043  16.2148648  71.0592041  25.0694260
  23.5714619  66.9926429  23.3320647  23.2568060  67.6829907  23.7641070
  23.0541561  66.9371211  22.6306148  23.4479090  67.0861317  23.2917597
  14.5694165  69.0653194  20.5693985  15.3240134  69.4331511  20.3311035
  14.3921700  69.4392749  21.3373164  14.6548644  69.1751382  20.6478873
  27.8629064  75.2147635  28.6141524  27.0257485  75.2849822  28.8489118
  27.8317295  75.2172129  27.7415826  27.7347347  75.2257862  28.5201072
  12.9251230  71.4723513  17.2672098  12.7426803  71.6895394  16.4413090
  13.7876843  71.5862526  17.3230712  13.0255820  71.5213411  17.1526585
  18.6050949  68.4749924  20.3021121  19.3337110  68.2965879  19.8559278
  18.6945842  69.3168004  20.5128299  18.7257611  68.5733802  20.2674639
  25.5436904  70.2790416  27.1985246  26.1862812  70.3488521  27.7847161
  25.7959925  69.6119639  26.6964788  25.6759036  70.1916765  27.2112525
  20.7788187  71.3727388  24.9096199  20.0744513  70.8836573  25.0680118
  20.8273161  71.3849862  24.0384644  20.6818238  71.3017036  24.8035539
  27.9818406  75.0535054  22.9297210  27.7254971  74.2414995  22.7395093
  28.8247720  75.0612621  22.7027397  28.0684432  74.9347051  22.8682027
  22.1621499  68.9934678  27.6673364  22.5432010  68.3112849  28.0541238
  21.3584783  68.7044280  27.4849028  22.0997960  68.8501726  27.6977420
  16.1213339  71.4988876  37.5335972  15.8066780  72.2688439  37.2705535
  15.8003272  70.9359132  36.9488199  16.0272258  71.5299145  37.4077322
  13.6745236  69.8879397  23.1482169  12.8067661  69.9601997  23.2139778
  13.9620440  70.6901476  23.3370144  13.5884984  70.0173544  23.1856935
  22.7978125  70.0357257  31.4793491  23.5431717  69.8467067  31.0656916
  22.3815429  70.5615495  30.9207347  22.8463099  70.0859402  31.3358064
  23.8768802  75.6462819  25.5403592  23.5333568  74.9253154  25.8910841
  23.9761844  75.4376670  24.6981950  23.8410845  75.5087022  25.4675272
  22.3959767  73.5654404  27.4163135  21.5570868  73.5915683  27.1801398
  22.4664135  74.2125139  27.9968481  22.2828161  73.6650529  27.4672251
  20.8429046  70.4639781  22.1490751  21.5455398  70.2647529  21.6710709
  20.5773234  69.6915723  22.4559594  20.9075678  70.3202747  22.1236192
  15.6057602  71.7275066  31.2021631  15.4140799  71.7430200  32.0521055
  16.4556198  71.9238740  31.1788286  15.7033324  71.7589417  31.3244926
  18.5161829  71.9230575  31.4093454  18.9734443  72.6554550  31.5366246
  18.5918158  71.4997040  32.1680710  18.5952799  71.9687813  31.5394531
  22.9889155  65.1020450  25.2787297  23.1072723  65.5596914  24.5454600
  22.8151330  64.2965712  24.9923515  22.9808326  65.0514223  25.1288231
  19.9566719  66.9571253  26.2205959  19.0860276  66.9309974  26.1739269
  20.2107060  66.7848445  25.4031805  19.8660279  66.9281396  26.0926096
  16.9815859  68.9677481  27.6779429  16.4654348  68.2757673  27.8031008
  16.4209788  69.6348258  27.6242028  16.8222372  68.9640739  27.6885495
  19.0508093  69.5070441  29.5072282  18.6639846  69.5319473  30.2885812
  18.5641030  68.9412120  29.0546799  18.9220601  69.4266192  29.5560186
  18.7165234  66.3937427  31.7982542  19.3458352  66.9297727  31.5203612
  18.8851097  66.3014786  32.6496108  18.8343029  66.4598789  31.8831070
  18.5179149  71.1808621  34.0708954  19.3452578  70.9093770  34.1267568
  18.5386995  71.9769463  34.4272772  18.6431999  71.2588376  34.1324136
  22.2089153  68.9273315  24.7667844  22.4138746  68.8595623  25.6124841
  21.8815577  69.7332136  24.6989021  22.1904401  69.0359256  24.8827499
  25.4622840  69.4805079  24.2470609  24.8497154  69.9675482  24.6324341
  25.5587015  68.8048570  24.7908260  25.3860738  69.4523388  24.3849467
  19.4641921  71.2367921  19.3468109  19.9185668  71.4078481  20.0715953
  19.9381967  70.6236031  18.9465884  19.6010242  71.1718806  19.3941870
  18.7234517  69.7360714  25.4844977  17.8770562  69.9083522  25.3586327
  18.7205649  68.9310058  25.8210806  18.5981667  69.6421743  25.5156104
  19.7932817  73.5135928  26.3507035  19.3192772  72.9877690  26.8612346
  20.1650953  72.9665401  25.7821897  19.7782706  73.3551925  26.3422182
  28.0574735  75.3539761  25.7143075  27.8184505  75.3135595  24.8763859
  28.2208636  76.2010913  25.8408796  28.0465038  75.4731846  25.6096557
  20.7418682  68.1104267  31.1526657  20.2459243  68.3067942  30.4618224
  21.4987744  68.5096936  30.9815459  20.7805506  68.1982001  31.0246794
  18.0121561  71.7846613  27.7429968  18.0364049  71.2506726  27.0542748
  18.2633035  71.2763922  28.4055558  18.0531480  71.6307517  27.7394612
  14.2922884  70.5117431  27.1235712  14.3321255  71.0126638  27.8370419
  13.4672548  70.6027825  26.8541635  14.1762410  70.5999248  27.1886250
  13.5221030  70.5186834  35.0566022  14.1473734  69.9748967  35.3295454
  13.0671510  70.0381752  34.4873812  13.5469291  70.3676316  35.0127615
  21.0911651  71.4886813  29.6161227  21.5166723  71.0359340  29.0044753
  20.4768644  70.9346884  29.8926014  21.0640296  71.3400789  29.5666252
  19.5305874  67.9601913  23.0251804  18.8874192  67.8099559  23.5936942
  19.1905281  67.7144258  22.2600908  19.3850951  67.9014036  22.9954819
  24.2833348  72.3717223  25.3572185  24.6360958  71.9446946  26.0317984
  23.4248149  72.2868067  25.4873262  24.2082792  72.2961964  25.4767196
  25.7157408  67.4935635  26.2856498  25.2088273  66.7864775  26.2177675
  26.5124842  67.1628824  26.4157574  25.7584647  67.3408787  26.2955493
  21.6321424  74.0002248  22.1830162  21.4035117  74.0234949  21.3408520
  21.8919500  73.1759715  22.3025172  21.6367612  73.8818328  22.0755359
  24.3578130  72.9902185  22.4333320  24.3572356  72.8350841  23.2917596
  24.1534310  73.8365172  22.3774706  24.3277908  73.0922806  22.5521259
  17.6518895  68.9065109  32.0605908  17.7846801  68.1096102  32.3886883
  18.0364048  69.4331512  32.6404183  17.7275224  68.8665026  32.1949411
  20.7251250  65.8295435  28.6587001  19.9197214  65.7193165  28.9754839
  20.5957986  65.9307891  27.8016867  20.5871383  65.8279105  28.5795041
  24.1817211  71.9940927  29.2526698  23.5980200  72.4950134  28.8404265
  24.5021505  71.4870483  28.6191021  24.1430386  71.9932762  29.0985205
  16.7212010  70.9081522  19.5285373  17.5427704  71.0779835  19.2867068
  16.2581661  71.0628783  18.8051670  16.7743172  70.9563255  19.3857017
  15.3107342  68.9024284  30.3083802  15.8551755  68.5615411  30.8988143
  15.3644278  69.7609746  30.4505086  15.3996461  68.9779543  30.4165675
   0.6941798  28.3255881  22.6581157   1.4008565  27.8307912  22.7868091
   0.8829733  28.7664963  21.9283815   0.8269703  28.3174231  22.5690202
   3.4129222  28.1092165  19.6995809   3.1767860  27.2780230  19.5807870
   4.0572451  28.0577772  20.2850653   3.4723893  27.9789853  19.7681703
   4.4365643  27.8936614  15.7624104   4.1311460  28.6264670  16.1237419
   3.7171859  27.4874543  15.4816890   4.2852985  27.9418347  15.7737241
  10.1367435  24.5329614  15.0892448  10.0691935  24.5525573  14.2195034
  10.1223098  25.3759942  15.3148118  10.1246192  24.6603349  14.9944925
   1.0365485  29.0645175  25.2263275   1.8500350  28.7930324  25.3868407
   0.8760451  28.7652715  24.4223471   1.1335433  28.9800101  25.1308681
   1.1040985  30.8171274  17.1391472   1.8933363  30.4660339  17.2593554
   1.2784583  31.6307662  16.8768106   1.2461267  30.8857131  17.1179340
   6.8533525  26.4529532  16.6088172   6.9116649  26.9016180  17.3548149
   6.2199993  26.8628344  16.1718252   6.7684820  26.5803266  16.6540720
   2.4106422  25.6397226  18.5788167   3.1340621  25.1869752  18.3999187
   2.1456384  25.9201891  17.7960495   2.4787695  25.6148194  18.4366882
   4.8441736  24.6023637  17.0818716   5.4359576  25.2420887  17.1136915
   5.2800730  23.9046673  17.3710783   4.9960167  24.5941987  17.1299549
   1.8956458  26.3210889  15.7086702   2.3211529  25.7985311  15.1557127
   1.5313377  26.9191727  15.1875325   1.9043060  26.3321117  15.5495712
   0.5712042  31.6446467  24.2179932   0.6809007  30.8555028  24.5736679
   0.9002938  31.5552403  23.4154270   0.6364447  31.5152320  24.1522323
  15.1580980  38.4879012   8.2967770  15.1274984  39.3423649   8.4686039
  15.7562329  38.1874305   8.8553914  15.2418138  38.5695509   8.4042572
   8.3580665  37.5754663  13.0520700   7.5018560  37.7363162  13.1029817
   8.4048319  36.7046727  13.0725761   8.2379776  37.4705465  13.0626766
  11.6674381  43.8441189  22.6581157  12.3741149  43.3493220  22.7868091
  11.8562317  44.2850270  21.9283815  11.8002287  43.8359539  22.5690202
   7.7351056  49.4857019  10.1854591   8.1190435  50.0543918   9.6459366
   7.6710197  48.7606530   9.7060407   7.7824483  49.4632483  10.0348453
  11.2032486  39.6346707  15.6952352  11.7488446  40.3131794  15.7546322
  11.1449362  39.4934168  14.8353934  11.2748400  39.7138709  15.5764413
   4.3206561  47.1235773  11.0820705   4.4216924  46.3136127  11.3917832
   3.7248306  47.0292720  10.4520383   4.2479099  46.9900801  11.0346943
  12.9797555  41.0631314   6.5686080  12.8637081  41.8139000   6.9978218
  13.7753441  40.8055268   6.8182167  13.0802144  41.1366161   6.6690172
   4.1607300  52.0413363  12.4835561   4.8044756  52.4826527  12.8731719
   4.4863556  51.2366789  12.3965819   4.3039129  51.9878557  12.5281038
   6.9129588  37.0541332   7.9389809   7.6109753  37.2329460   8.4311272
   7.2281921  36.5311672   7.3160198   7.0624925  37.0035104   7.9191819
   7.1017524  43.4411777   7.9269600   7.5411159  42.8328878   8.3724373
   6.9522186  43.0619151   7.1555065   7.1438989  43.2950248   7.8788768
   4.5689167  42.0355789  15.1288426   5.2138169  41.5428232  14.8099374
   4.8090944  42.1780576  15.9554504   4.6999752  41.9833231  15.2037959
   7.1075258  44.8810695  14.7795319   7.3898501  44.0862101  14.5582074
   7.8361418  45.3591282  14.8000380   7.2564822  44.8345292  14.7498334
   5.0856452  32.4233729  12.0211084   4.7559782  32.8744873  11.3514782
   4.4101454  32.3449892  12.5684090   4.9366888  32.4784864  12.0034307
  10.7026860  41.7938959   4.8800370  10.6178155  42.6499925   5.0249939
  11.1911243  41.5183283   5.5482529  10.7615757  41.8796280   5.0002451
  11.6345293  38.4123753   6.3798105  11.1056765  38.6283386   7.0395411
  12.1570313  39.1059891   6.2999074  11.6333746  38.5466890   6.4653704
  17.0893346  43.9870057  11.7531149  16.2591049  44.1980701  11.9164566
  17.0402599  43.1607112  11.4773433  16.9600082  43.8959664  11.7368515
   5.1503084  46.8173911  14.5879059   4.6330025  46.4581326  13.9840367
   5.8477475  46.2936086  14.5985125   5.1768665  46.6871599  14.5009318
   8.8066676  47.2668725  20.5495232   8.8950022  47.0794866  21.3973442
   9.2356388  46.6206155  20.1500079   8.8828778  47.1431733  20.6166983
   6.3737136  46.5499885  19.5312894   5.8107970  46.1372495  20.0552555
   7.1358159  46.4752791  19.9506037   6.4031584  46.4777286  19.6705894
   1.9333127  48.5397907  12.1349524   2.6353706  48.0249896  12.1922281
   1.8530610  48.8672058  12.9396399   2.0256887  48.5112133  12.2622316
  16.5847305  36.6340458  15.5481571  15.7475726  36.7042645  15.7829165
  16.5535535  36.6364953  14.6755873  16.4565587  36.6450685  15.4541119
   2.9812034  38.7773494  21.2629939   3.1532537  38.6679388  22.1115221
   3.5181391  39.4227899  21.0261132   3.0857038  38.8565495  21.3535036
   1.2583902  44.7304259  11.6435132   2.0972802  44.9627191  11.6908894
   1.2895672  43.8608570  11.5742168   1.3865620  44.6361205  11.6399777
   1.8836605  45.1505134  15.9448438   2.4234830  45.0076265  16.6151810
   1.2006552  45.5501885  16.3132464   1.8628759  45.1884805  16.0982859
  11.3077490  40.8296134  11.1393462  12.0635005  41.2627649  11.1782371
  11.4139815  40.1800904  11.7128098  11.4347661  40.7973618  11.2291488
  14.3457661  44.6569412  11.8895865  13.9092893  44.6606154  12.6454837
  14.0120577  45.3374911  11.4575443  14.2320281  44.7581867  11.9376698
   8.9186735  46.6977744  23.2139015   9.7027152  46.8108592  23.5794758
   8.7183330  45.8718882  23.4097701   9.0052760  46.5924464  23.2973401
  14.2655144  31.6983239  14.1325293  14.9081053  31.7681344  14.7187208
  14.5178165  31.0312462  13.6304835  14.3977276  31.6109588  14.1452572
   2.0372357  34.9083803  18.7449867   1.3444154  34.4380783  18.9910599
   2.6532684  34.6822107  19.3191574   2.0256887  34.8050935  18.8659020
   9.0757128  48.6087847  16.8605471   8.2772374  48.3687347  17.1179340
   9.5243140  48.6602239  17.6072519   9.0231740  48.5810238  17.0090395
  17.4802008  41.3750332  10.7815502  18.1418442  40.8141000  10.6811411
  16.8393420  40.8802362  11.1068194  17.4830875  41.2186741  10.8147843
  13.7666838  42.3915714  10.5227491  14.0022428  42.5360913   9.6954342
  13.9156402  43.1558122  10.9159005  13.8232642  42.5254768  10.4591095
   0.7612916  38.8749207  19.8876712   1.4852888  38.8602237  20.3741607
   0.8629052  39.5844562  19.3898680   0.8831125  38.9773910  19.8855499
  15.5957295  41.2317380   8.3597095  15.9265512  41.7645020   7.7537190
  16.1690383  41.2856268   9.0159046  15.7290974  41.3186949   8.3674877
   8.1357865  42.3548291  24.7525659   7.3430846  42.6691803  24.9378279
   8.2506792  42.5699760  23.9146444   8.0353276  42.4332128  24.6563994
  10.8089184  39.0782283   9.0420675  10.9036039  39.8171577   9.4960301
  10.1848028  38.6499758   9.4755240  10.7298214  39.1243603   9.1728823
   9.0641658  42.2568495  19.6910956   9.6380520  41.6195739  19.8459520
   8.9856462  42.2572578  18.8220614   9.1374893  42.1633607  19.5857367
   4.4205377  40.6891760  11.7432153   4.1624621  39.8563495  11.7163453
   4.4753860  40.9149373  10.9024654   4.3905155  40.5989532  11.6152290
   9.5006427  32.7920211  11.8436246   8.7962754  32.3029397  12.0020165
   9.5491401  32.8042685  10.9724690   9.4036478  32.7209859  11.7375586
   3.3940089  38.2429523  12.2297048   2.8189680  38.4021691  12.8661009
   3.0175765  37.6064932  11.7665499   3.2542901  38.1727336  12.2551607
   7.0613377  36.7152872  17.0889427   6.6727810  36.2907090  16.4341618
   6.3968076  36.9635022  17.5966453   6.9060305  36.6891593  17.0677294
  16.7036647  36.4727877   9.8637257  16.4473211  35.6607818   9.6735139
  17.5465961  36.4805444   9.6367444  16.7902672  36.3539874   9.8022074
  10.8839739  30.4127501  14.6013411  11.2650251  29.7305672  14.9881285
  10.0803023  30.1237103  14.4189075  10.8216201  30.2694549  14.6317467
   8.1652316  40.9451477   5.2866234   8.9792955  41.2366369   5.1749005
   8.1011457  40.2911339   4.7124526   8.2755055  40.8916671   5.1855071
  14.3861806  43.6277473  19.6995809  14.1500443  42.7965538  19.5807870
  15.0305035  43.5763080  20.2850653  14.4456477  43.4975161  19.7681703
   4.0360224  44.4172994  10.4138546   4.6734171  44.1784742  10.9590339
   4.4615296  44.6210153   9.6791706   4.1936390  44.4124004  10.3855703
   4.8431579  32.9181699  24.4676019   4.5285021  33.6881262  24.2045582
   4.5221512  32.3551955  23.8828246   4.7490499  32.9491968  24.3417369
  15.4098227  43.4121922  15.7624104  15.1044044  44.1449978  16.1237419
  14.6904442  43.0059851  15.4816890  15.2585569  43.4603655  15.7737241
   6.4181696  44.8945417  12.0932332   6.4920704  44.7320589  12.9474182
   7.2351202  45.0835606  11.8492814   6.5498055  44.8982159  12.1830357
  21.1100019  40.0514922  15.0892448  21.0424519  40.0710881  14.2195034
  21.0955681  40.8945249  15.3148118  21.0978775  40.1788657  14.9944925
  11.5196365  31.4550080  18.4133537  12.2649957  31.2659890  17.9996963
  11.1033670  31.9808318  17.8547394  11.5681339  31.5052225  18.2698111
  18.8958636  38.8259308  13.3639042  19.4466558  38.1927377  13.6036134
  18.8802751  39.3574701  14.0554547  18.9743832  38.8108257  13.5017901
   5.5481027  42.6597906  17.9098936   5.0492721  43.3713673  17.9883824
   6.3581251  42.9798572  17.8717098   5.5937134  42.8124754  17.9155504
   1.8109144  41.9220859  12.1561657   1.5222393  41.2958330  12.6907384
   2.6792493  41.8641146  12.2226337   1.8969396  41.8208403  12.2452611
  12.5987042  37.0655642  12.4743639  12.2551808  36.3445977  12.8250888
  12.6980085  36.8569493  11.6321997  12.5629085  36.9279845  12.4015319
  13.0600071  43.5281346   8.0167627  13.6258104  44.1874556   7.9326170
  12.4127975  43.8731044   8.4884029  13.0478828  43.6763287   8.0740383
   4.4748085  35.5178950  23.2061234   3.6647861  35.8236730  23.0951076
   4.9522772  36.2384532  23.3213818   4.4251564  35.6693551  23.2068305
   3.3339644  44.7324671  13.4544137   2.8120398  44.8724963  14.1396002
   3.7213665  43.9735335  13.6446254   3.3143345  44.6410195  13.5845214
   9.5306649  46.4720130   7.4404706   9.2893325  45.7387991   7.0331771
   9.7107982  47.0206987   6.7871039   9.5214273  46.4442522   7.2834929
   4.7605970  41.7628690   8.8525628   4.5648753  42.3703425   8.2585931
   4.9840316  41.0696634   8.3717302   4.7640611  41.7506216   8.6941709
   3.1584500  38.6483428   8.9706496   3.8807152  38.8124586   8.5110302
   2.6792493  39.3693093   8.8645836   3.1948231  38.7781658   8.8872110
  11.1178008  34.9847227  14.3503181  10.2789108  35.0108506  14.1141445
  11.1882375  35.6317962  14.9308528  11.0046401  35.0843353  14.4012298
   9.5647286  31.8832604   9.0830797  10.2673639  31.6840352   8.6050756
   9.2991475  31.1108546   9.3899641   9.6293918  31.7395570   9.0576239
  14.9935531  40.1915214  11.6364423  14.9069506  40.3470640  12.4899202
  14.5386011  40.8353289  11.2623828  14.9138788  40.3090969  11.7071530
   4.3275842  33.1467889  18.1361678   4.1359039  33.1623024  18.9861101
   5.1774438  33.3431563  18.1128333   4.4251564  33.1782240  18.2584973
   8.8661348  37.5125961  10.2589983   8.6196062  37.4321712  11.0926772
   9.1946471  36.7279429  10.0652510   8.8782591  37.3852226  10.3537506
  12.7609396  44.2209320  14.0476764  12.6223756  44.9190366  14.5525506
  11.9809394  44.0657977  13.6912946  12.6252623  44.3009487  14.0703038
  11.0987482  40.5205695  20.2999146  11.0935520  39.6485512  20.3041572
  11.8048475  40.7193865  19.8268601  11.2032486  40.4209570  20.2306181
   4.8258375  40.2482679  19.6712966   4.9701751  40.8283887  19.0356076
   5.1734023  40.6258976  20.3762820   4.8985836  40.3903383  19.6811961
   6.9978292  39.4472848  17.4538097   6.2501606  39.6403862  17.0486375
   7.1519817  38.6218067  17.2162219   6.9100720  39.3537959  17.3583503
   3.8986130  48.4385451  16.5373993   4.0475694  47.8788367  15.8847397
   4.6786132  48.5177453  16.9206511   4.0360223  48.3671017  16.4970942
  14.2562769  43.5787574   4.8093263  13.8769578  42.7924712   4.8022552
  13.5929015  44.1274431   4.6664907  14.1021244  43.5432398   4.7874060
   6.4239430  48.6100094  17.8158483   6.3483102  47.9408905  18.3709272
   6.3529290  49.3117882  18.3299150   6.4020037  48.6145001  17.9735332
   7.2380069  33.3423398  18.3433501   7.6952683  34.0747373  18.4706293
   7.3136398  32.9189864  19.1020757   7.3171039  33.3880637  18.4734578
  11.7107395  26.5213274  12.2127344  11.8290963  26.9789737  11.4794647
  11.5369571  25.7158535  11.9263562  11.7026566  26.4707046  12.0628278
   7.0809677  47.1301093   8.6482089   7.8459568  46.8610737   8.3264754
   6.9787767  46.6451103   9.3652152   7.1791173  47.0190658   8.7061917
   5.1162447  35.3325502  15.1875325   4.3258522  35.1516962  15.5092661
   5.5123070  34.5552455  15.1705620   5.0579323  35.1912963  15.2327873
  10.5006133  42.9667933  12.9134771   9.8251135  42.7353165  13.4148158
  10.5098510  42.3589115  12.2876876  10.4024638  42.8426858  12.8950923
   7.6300277  37.8085761  19.6698824   7.5659419  38.6695718  19.5418961
   7.7697465  37.4917755  18.8694375   7.6415747  37.8885928  19.5327037
  12.5022868  45.8233065   5.1444949  12.5842705  46.6300051   4.8206400
  12.9872610  45.8429024   5.8685722  12.5860026  45.9453727   5.2031848
   6.3119371  40.5017901  13.8115027   5.8881620  40.7022400  13.0754045
   6.1364226  39.6546749  13.9239327   6.2230252  40.4066682  13.7188717
   5.8131065  52.0168414  16.2736484   6.3026995  51.3179203  16.0912149
   5.2415297  51.7192284  16.8612542   5.8015595  51.8694637  16.3337525
   1.6001816  40.9969952   9.2442999   1.7566435  40.9316755  10.0998992
   1.9402409  41.7718505   9.0321679   1.6735051  41.1019150   9.3397594
   8.1380961  40.3727836   8.1136363   8.6796506  39.8698217   8.5774983
   8.4527520  40.3193031   7.3025848   8.2645358  40.2907257   8.0620175
  12.0098068  44.5830483  25.2263275  12.8232934  44.3115632  25.3868407
  11.8493035  44.2838023  24.4223471  12.1068017  44.4985409  25.1308681
   9.2870230  35.2664140  18.1658663   9.5012200  34.6275055  17.6122017
   8.6704129  35.7109964  17.7366525   9.2275560  35.2374284  18.0209094
  10.6974898  48.1882889   9.6112884  10.3054690  47.8849604   8.8935750
  10.8527970  49.0251979   9.4217838  10.6628488  48.2666725   9.4769381
  11.4509318  36.8753206  19.1041970  10.6386000  36.5679096  19.1855143
  11.9099253  36.3952206  19.6684682  11.3989703  36.7589698  19.1996564
  10.8614573  44.7532878   9.5518915  10.5029228  44.9247520  10.3282947
  10.3753284  45.2146083   8.9946913  10.7373270  44.8471849   9.5844184
   8.6784959  28.3764076  13.1546006   7.8078517  28.3502797  13.1079315
   8.9325300  28.2041268  12.3371852   8.5878519  28.3474220  13.0266143
   8.5462826  38.2813277  23.8870673   9.0162457  38.9055393  24.2738547
   8.5924706  37.6130252  24.4463887   8.6230702  38.2747957  24.0270744
   5.7034099  30.3870304  14.6119476   5.1872588  29.6950496  14.7371055
   5.1428028  31.0541081  14.5582075   5.5440613  30.3833562  14.6225542
   7.7726333  30.9263264  16.4412329   7.3858086  30.9512296  17.2225859
   7.2859270  30.3604943  15.9886845   7.6438842  30.8459015  16.4900233
  12.0219312  45.6436773  20.4986115  12.6599033  45.1496969  20.1648571
  11.3793404  45.5714174  19.9138342  12.0213539  45.5595782  20.3628470
  13.7476312  37.4925919  15.0652031  13.3203920  37.4052268  14.3100131
  13.1102365  37.6003695  15.6506875  13.5905920  37.4958579  15.0397473
   7.2397389  32.6001445  21.0049000   8.0670819  32.3286594  21.0607615
   7.2605236  33.3962286  21.3612819   7.3650240  32.6781199  21.0664183
  12.0773569  46.3356582  17.1391472  12.8665947  45.9845646  17.2593554
  12.2517167  47.1492970  16.8768106  12.2193851  46.4042439  17.1179340
   1.8166879  39.7465307  14.1919261   0.9754886  39.6469182  14.3998155
   2.0256887  40.5160788  14.5433582   1.7231572  39.8457351  14.2746576
  10.9307393  30.3466138  11.7007891  11.1356986  30.2788446  12.5464888
  10.6033817  31.1524960  11.6329068  10.9122641  30.4552079  11.8167546
   5.6283544  37.6746707  13.4416859   5.3246682  37.1202695  14.0427266
   4.9262965  37.8538917  12.9544893   5.4799754  37.6191489  13.4586564
   3.6901895  44.8896427  18.1488956   3.5822250  44.8998489  19.0151014
   3.8997677  45.7151208  17.9593910   3.7052006  45.0137502  18.2493048
  14.1841081  30.8997903  11.1810656  13.5715394  31.3868305  11.5664388
  14.2805256  30.2241394  11.7248307  14.1078978  30.8716211  11.3189514
   1.7075687  42.1409070  15.6110894   1.1163620  42.7818568  15.5813909
   2.4696711  42.5646687  15.5842193   1.7323948  42.2984908  15.6026041
   2.1036310  33.3011068  16.2778912   2.5637792  33.3749997  17.0154035
   2.1492417  34.0992322  15.9278733   2.1786865  33.4305215  16.3351668
   3.7519660  33.9677762  20.8450939   3.3605225  33.3211110  21.2806716
   3.9205522  34.5589198  21.4645194   3.7190570  33.9592030  21.0013645
  17.8266109  41.9714839  16.6088172  17.8849232  42.4201488  17.3548149
  17.1932576  42.3813652  16.1718252  17.7417404  42.0988574  16.6540720
  11.4665203  47.5918381  13.0442918  11.2684892  48.0809196  12.3499130
  10.8452914  47.7959623  13.6227052  11.3452768  47.6934920  13.0266142
   5.5273182  39.3603278   7.3853163   6.2715227  39.7477554   7.6236113
   5.6733878  38.5160704   7.5493650   5.6583767  39.2933751   7.4447132
   7.4452757  31.1553537  12.4185024   6.5988802  31.3276345  12.2926374
   7.4423890  30.3502881  12.7550852   7.3199907  31.0614566  12.4496151
   8.5151058  34.9328751  13.2847082   8.0411012  34.4070514  13.7952393
   8.8869193  34.3858224  12.7161944   8.5000947  34.7744748  13.2762229
  14.7787788  39.9931127  14.6953863  14.5386011  39.1537542  14.6996289
  15.2579795  40.0731294  15.4194636  14.8139972  39.8812527  14.8028665
  16.7792975  36.7732584  12.6483122  16.5402745  36.7328419  11.8103906
  16.9426876  37.6203736  12.7748843  16.7683279  36.8924669  12.5436604
  13.3839005  41.1582534  18.5788167  14.1073204  40.7055060  18.3999187
  13.1188968  41.4387199  17.7960495  13.4520279  41.1333502  18.4366882
   2.2525874  35.7542707  15.3141046   1.6278944  35.7661099  14.7066999
   1.9171469  36.2302882  15.9632286   2.1111366  35.8261224  15.3197614
   9.9971640  44.3968870   5.4782493  10.7205839  44.8626983   5.3347066
   9.5572231  44.4642479   4.7280090  10.0387332  44.4752706   5.3467274
   9.1657795  41.2566412  16.7283182   8.5514788  40.7124462  17.0231817
   9.6825080  40.7430648  16.2488998   9.1513457  41.1002821  16.7007410
   8.4054092  42.3270682  14.4627480   7.9781700  41.7020401  14.0292916
   8.3979036  42.0445604  15.2886488   8.3413233  42.1923463  14.5207308
   1.5216619  37.3635855  17.5315914   1.6810106  36.6079179  17.9367636
   1.3409513  37.9126795  18.1856652   1.5181978  37.3329669  17.6878620
   9.4636922  29.5297091  18.0866704   8.9677483  29.7260765  17.3958271
  10.2205984  29.9289759  17.9155506   9.5023747  29.6174824  17.9586841
   6.7339802  33.2039436  14.6770014   6.7582289  32.6699549  13.9882794
   6.9851275  32.6956745  15.3395605   6.7749720  33.0500340  14.6734659
   3.0141124  31.9310255  14.0575759   3.0539496  32.4319461  14.7710466
   2.1890789  32.0220648  13.7881682   2.8980650  32.0192071  14.1226297
   5.1970737  41.4970995  22.1596053   4.3466367  41.6342709  22.2953698
   5.3598865  40.7634773  22.6043755   5.0954600  41.4085096  22.2451653
   4.4355487  38.4470765  16.3549658   3.6047417  38.6144583  16.1484906
   4.3807004  38.0706715  17.1398543   4.3044902  38.4160496  16.4398186
   2.2439271  31.9379657  21.9906068   2.8691974  31.3941790  22.2635501
   1.7889751  31.4574575  21.4213859   2.2687531  31.7869139  21.9467662
  15.8174319  40.1208944  17.0818716  16.4092160  40.7606195  17.1136915
  16.2533314  39.4231981  17.3710783  15.9692751  40.1127295  17.1299549
   7.6467709  44.5426317  17.7076610   7.1392800  45.0962164  18.1517241
   7.3494355  44.6034607  16.8895385   7.5272594  44.6332628  17.6525067
   9.8129891  32.9079636  16.5501273  10.2384963  32.4552163  15.9384800
   9.1986884  32.3539707  16.8266061   9.7858537  32.7593613  16.5006299
  12.8423461  37.3354163   9.3821859  12.1714651  37.8783865   9.2534925
  13.5363211  37.8049018   9.1403554  12.8452328  37.4852434   9.3277387
   6.8910194  49.4750875  14.6133617   6.6675849  48.7169704  14.9817644
   6.4020038  49.5048896  13.8914057   6.7853643  49.3673100  14.5610358
  13.0051588  33.7910047  12.2912232  13.3579198  33.3639770  12.9658031
  12.1466390  33.7060890  12.4213309  12.9301033  33.7154787  12.4107243
   1.7035273  36.4217566  10.3495079   0.9847262  36.8381699  10.6167942
   2.0747635  36.9871805   9.7986717   1.6527205  36.5666848  10.3077886
  11.0034854  37.0545415  16.2397074  10.9832781  36.8728710  17.0931853
  11.0514055  37.9257434  16.2156658  11.0069495  37.1561954  16.3620369
   8.9481184  43.6432607  22.1645551   8.9077039  42.9982284  21.5790707
   9.7604502  43.5869225  22.4770963   9.0624337  43.5391574  22.1242500
   5.5388651  49.6951333  12.0670702   5.1249050  49.0325463  11.6774544
   6.2236026  49.8429192  11.5466396   5.5787023  49.6191991  11.9327199
   8.9053945  48.8541418  12.8194318   8.5070229  48.9643689  12.0515139
   8.2905165  49.0623485  13.4020878   8.7552835  48.9014987  12.7925618
  14.4375648  28.9128459  13.2196545  13.9306513  28.2057598  13.1517722
  15.2343082  28.5821647  13.3497621  14.4802887  28.7601610  13.2295540
  10.3539664  35.4195071   9.1170208  10.1253357  35.4427772   8.2748567
  10.6137740  34.5952538   9.2365219  10.3585852  35.3011151   9.0095406
   4.6358893  37.2729544  18.7195309   4.1237796  36.6650727  19.0780340
   4.4638389  37.9886136  19.1869284   4.5348530  37.2892843  18.8411532
   3.4084427  33.9571617  10.4124404   3.8841793  34.3188697   9.7774585
   2.9073026  34.6128085  10.6924547   3.4049786  34.1065806  10.3601145
  16.6395788  43.4293385   6.2037409  17.0229394  44.1784741   6.4335506
  15.8439902  43.6759205   5.9449398  16.5789570  43.5763079   6.1994983
   8.5127963  35.1953789  21.1597564   9.0699393  34.9667598  20.5276030
   8.1889028  35.9559454  20.8832777   8.5474373  35.2737625  21.0254061
   6.2311080  38.2821442  22.1249571   6.9822407  38.5973119  22.4389125
   6.4233657  38.0800613  21.2983493   6.3702494  38.2988824  22.0492967
  13.0796370  34.4095008   9.3673367  13.0790597  34.2543665  10.2257643
  12.8752550  35.2557995   9.3114752  13.0496148  34.5115629   9.4861306
  10.8037222  39.0892510  13.0209574  11.2990888  38.3715505  12.9813594
   9.9936998  38.7863308  12.9064061  10.7581116  38.9390156  12.9983299
  12.8689041  41.8396197  15.7086702  13.2944113  41.3170619  15.1557127
  12.5045961  42.4377035  15.1875325  12.8775644  41.8506424  15.5495712
   2.5043121  50.1360415  14.4684048   2.8189680  50.9496803  14.4761830
   2.9136534  49.7510634  15.1366207   2.6111219  50.1989117  14.5688140
   9.4567641  45.5530462  12.0387860   9.9278819  46.2670724  12.2077845
   9.7927819  44.9529212  12.5747729   9.5762756  45.5701926  12.1420236
  11.5444625  47.1631775  24.2179932  11.6541591  46.3740336  24.5736679
  11.8735522  47.0737711  23.4154270  11.6097031  47.0337628  24.1522323
   6.3737136  30.3257932  18.9945955   6.5065041  29.5288926  19.3226930
   6.7582288  30.8524335  19.5744230   6.4493464  30.2857849  19.1289458
  10.0941587  45.3448396  18.8015552   9.5462533  44.7206279  18.5335618
  10.5554616  45.5342668  18.0859632  10.0808796  45.2807446  18.6565984
   9.4469491  27.2488258  15.5927048   8.6415454  27.1385988  15.9094886
   9.3176226  27.3500714  14.7356914   9.3089624  27.2471928  15.5135088
  12.9035451  33.4133750  16.1866745  12.3198440  33.9142957  15.7744312
  13.2239745  32.9063306  15.5531068  12.8648627  33.4125585  16.0325252
   4.0325582  30.3217107  17.2423848   4.5769995  29.9808234  17.8328190
   4.0862518  31.1802569  17.3845133   4.1214702  30.3972367  17.3505722
   9.6599913  46.3499469  15.3324894  10.4798287  46.2062435  15.5941189
   9.3793991  46.9745667  15.8741332   9.7396657  46.4209821  15.4512833
  26.1313564  54.0064320   8.2967770  26.1007568  54.8608957   8.4686039
  26.7294912  53.7059613   8.8553914  26.2150722  54.0880817   8.4042572
  19.3313249  53.0939971  13.0520700  18.4751144  53.2548470  13.1029817
  19.3780902  52.2232035  13.0725761  19.2112360  52.9890773  13.0626766
  22.6406965  59.3626497  22.6581157  23.3473732  58.8678528  22.7868091
  22.8294900  59.8035578  21.9283815  22.7734871  59.3544847  22.5690202
  18.7083639  65.0042327  10.1854591  19.0923019  65.5729226   9.6459366
  18.6442781  64.2791838   9.7060407  18.7557067  64.9817791  10.0348453
  22.1765070  55.1532015  15.6952352  22.7221030  55.8317102  15.7546322
  22.1181946  55.0119476  14.8353934  22.2480984  55.2324017  15.5764413
  15.2939144  62.6421081  11.0820705  15.3949507  61.8321435  11.3917832
  14.6980890  62.5478028  10.4520383  15.2211683  62.5086109  11.0346943
  23.9530138  56.5816622   6.5686080  23.8369664  57.3324308   6.9978218
  24.7486025  56.3240576   6.8182167  24.0534728  56.6551469   6.6690172
  15.1339884  67.5598670  12.4835561  15.7777339  68.0011834  12.8731719
  15.4596140  66.7552097  12.3965819  15.2771713  67.5063865  12.5281038
  10.7894276  50.8327098  13.6057346  10.1699308  50.2419746  13.4367361
  10.6878140  51.4238534  12.9721669  10.6831952  50.8331181  13.4862335
  17.8862172  52.5726640   7.9389809  18.5842336  52.7514768   8.4311272
  18.2014504  52.0496980   7.3160198  18.0357509  52.5220412   7.9191819
  10.5163409  54.3779380  15.8500915  10.3922106  54.9641826  16.4850734
  11.1681694  53.8839576  16.1513190  10.5937058  54.3918185  15.9886844
  18.0750107  58.9597085   7.9269600  18.5143743  58.3514186   8.3724373
  17.9254770  58.5804459   7.1555065  18.1171573  58.8135556   7.8788768
  15.5421750  57.5541097  15.1288426  16.1870753  57.0613540  14.8099374
  15.7823527  57.6965884  15.9554504  15.6732335  57.5018539  15.2037959
  18.0807842  60.3996003  14.7795319  18.3631084  59.6047409  14.5582074
  18.8094002  60.8776590  14.8000380  18.2297405  60.3530600  14.7498334
  16.0589035  47.9419037  12.0211084  15.7292365  48.3930180  11.3514782
  15.3834037  47.8635200  12.5684090  15.9099472  47.9970172  12.0034307
  21.6759444  57.3124267   4.8800370  21.5910739  58.1685233   5.0249939
  22.1643827  57.0368591   5.5482529  21.7348341  57.3981588   5.0002451
  23.2665443  43.9304560  10.2660694  22.9518884  44.6208038  10.6981117
  22.7492385  43.8749342   9.5646195  23.1429914  44.0239448  10.2257643
  22.6077877  53.9309061   6.3798105  22.0789348  54.1468694   7.0395411
  23.1302897  54.6245199   6.2999074  22.6066330  54.0652198   6.4653704
  28.0625930  59.5055365  11.7531149  27.2323633  59.7166009  11.9164566
  28.0135182  58.6792420  11.4773433  27.9332665  59.4144971  11.7368515
  16.1235667  62.3359219  14.5879059  15.6062609  61.9766634  13.9840367
  16.8210059  61.8121394  14.5985125  16.1501249  62.2056907  14.5009318
  19.7799259  62.7854033  20.5495232  19.8682605  62.5980174  21.3973442
  20.2088972  62.1391463  20.1500079  19.8561362  62.6617041  20.6166983
  17.3469719  62.0685193  19.5312894  16.7840554  61.6557803  20.0552555
  18.1090743  61.9938099  19.9506037  17.3764168  61.9962594  19.6705894
  18.9554699  54.0737930   3.6574493  19.1950703  54.2815913   2.8449837
  19.2770540  53.2695438   3.7663438  19.0391857  53.9852031   3.5535046
  14.2644989  46.0031325   7.5034031  15.0190957  46.3709642   7.2651082
  14.0872524  46.3770880   8.2713211  14.3499468  46.1129513   7.5818920
  12.9065711  64.0583215  12.1349524  13.6086290  63.5435204  12.1922281
  12.8263194  64.3857366  12.9396399  12.9989471  64.0297441  12.2622316
  27.5579888  52.1525766  15.5481571  26.7208309  52.2227953  15.7829165
  27.5268119  52.1550261  14.6755873  27.4298171  52.1635993  15.4541119
  13.9544617  54.2958801  21.2629939  14.1265121  54.1864696  22.1115221
  14.4913975  54.9413207  21.0261132  14.0589621  54.3750803  21.3535036
  12.6202054  48.4101644   4.2012144  12.4377627  48.6273525   3.3753137
  13.4827667  48.5240657   4.2570759  12.7206644  48.4591542   4.0866631
  12.2316486  60.2489567  11.6435132  13.0705385  60.4812499  11.6908894
  12.2628255  59.3793878  11.5742168  12.3598204  60.1546513  11.6399777
  12.8569189  60.6690442  15.9448438  13.3967414  60.5261573  16.6151810
  12.1739135  61.0687193  16.3132464  12.8361343  60.7070113  16.0982859
  18.3001773  45.4128055   7.2361168  19.0287934  45.2344010   6.7899324
  18.3896666  46.2546135   7.4468346  18.4208435  45.5111933   7.2014686
  22.2810074  56.3481442  11.1393462  23.0367589  56.7812957  11.1782371
  22.3872398  55.6986212  11.7128098  22.4080245  56.3158926  11.2291488
  25.3190245  60.1754720  11.8895865  24.8825477  60.1791462  12.6454837
  24.9853161  60.8560219  11.4575443  25.2052865  60.2767175  11.9376698
  19.8919319  62.2163052  23.2139015  20.6759735  62.3293900  23.5794758
  19.6915913  61.3904190  23.4097701  19.9785344  62.1109772  23.2973401
   8.2606334  56.8890733  16.0982859   7.9944749  56.0729849  16.2573850
   8.2744898  56.9343888  15.2278375   8.2231056  56.7747637  15.9936341
  25.2387728  47.2168547  14.1325293  25.8813636  47.2866652  14.7187208
  25.4910749  46.5497770  13.6304835  25.3709860  47.1294896  14.1452572
  13.0104940  50.4269111  18.7449867  12.3176737  49.9566091  18.9910599
  13.6265268  50.2007415  19.3191574  12.9989470  50.3236243  18.8659020
  20.0489712  64.1273154  16.8605471  19.2504958  63.8872655  17.1179340
  20.4975724  64.1787547  17.6072519  19.9964323  64.0995546  17.0090395
  28.4534591  56.8935639  10.7815502  29.1151025  56.3326308  10.6811411
  27.8126003  56.3987670  11.1068194  28.4563459  56.7372049  10.8147843
   8.6699748  57.6749512  13.3794604   8.4875321  57.6496398  12.5266896
   9.4049417  58.1448450  13.4183512   8.7513812  57.7410874  13.2592522
  24.7399422  57.9101022  10.5227491  24.9755011  58.0546221   9.6954342
  24.8888986  58.6743430  10.9159005  24.7965225  58.0440076  10.4591095
  11.7345499  54.3934515  19.8876712  12.4585472  54.3787545  20.3741607
  11.8361636  55.1029870  19.3898680  11.8563709  54.4959218  19.8855499
  26.5689879  56.7502688   8.3597095  26.8998096  57.2830328   7.7537190
  27.1422967  56.8041576   9.0159046  26.7023558  56.8372257   8.3674877
  19.1090449  57.8733599  24.7525659  18.3163430  58.1877111  24.9378279
  19.2239376  58.0885068  23.9146444  19.0085859  57.9517436  24.6563994
  21.7821768  54.5967591   9.0420675  21.8768622  55.3356885   9.4960301
  21.1580611  54.1685066   9.4755240  21.7030798  54.6428911   9.1728823
  20.0374242  57.7753803  19.6910956  20.6113103  57.1381047  19.8459520
  19.9589045  57.7757886  18.8220614  20.1107477  57.6818915  19.5857367
   8.6370658  54.5543013  13.5293670   9.2144161  54.4179463  14.1685915
   7.9384720  54.0978797  13.7839255   8.6191679  54.4665279  13.6615960
  22.0344789  56.4416330   2.2757627  21.9524952  56.5118517   3.1412614
  22.6724510  57.0046074   2.0841368  22.1164626  56.5355301   2.3747577
  15.3937960  56.2077068  11.7432153  15.1357205  55.3748803  11.7163453
  15.4486443  56.4334681  10.9024654  15.3637738  56.1174840  11.6152290
  20.4739010  48.3105519  11.8436246  19.7695337  47.8214704  12.0020165
  20.5223985  48.3227993  10.9724690  20.3769062  48.2395167  11.7375586
  14.3672672  53.7614831  12.2297048  13.7922264  53.9206999  12.8661009
  13.9908349  53.1250240  11.7665499  14.2275485  53.6912644  12.2551607
  18.0345961  52.2338180  17.0889427  17.6460394  51.8092398  16.4341618
  17.3700659  52.4820330  17.5966453  17.8792889  52.2076901  17.0677294
  27.6769230  51.9913185   9.8637257  27.4205795  51.1793126   9.6735139
  28.5198544  51.9990752   9.6367444  27.7635256  51.8725182   9.8022074
  21.8572323  45.9312809  14.6013411  22.2382834  45.2490980  14.9881285
  21.0535607  45.6422411  14.4189075  21.7948784  45.7879857  14.6317467
  19.1384899  56.4636785   5.2866234  19.9525538  56.7551677   5.1749005
  19.0744041  55.8096647   4.7124526  19.2487638  56.4101979   5.1855071
  25.3594389  59.1462781  19.6995809  25.1233027  58.3150846  19.5807870
  26.0037618  59.0948388  20.2850653  25.4189060  59.0160469  19.7681703
  15.0092808  59.9358302  10.4138546  15.6466755  59.6970050  10.9590339
  15.4347879  60.1395461   9.6791706  15.1668974  59.9309312  10.3855703
   9.7005450  62.1746639  14.2972849   9.7409595  62.4461490  13.4692629
  10.2599974  62.6988547  14.7130637   9.7888796  62.2922394  14.2364738
  15.8164163  48.4367007  24.4676019  15.5017604  49.2066570  24.2045582
  15.4954096  47.8737263  23.8828246  15.7223082  48.4677276  24.3417369
  26.3830810  58.9307230  15.7624104  26.0776627  59.6635286  16.1237419
  25.6637026  58.5245159  15.4816890  26.2318152  58.9788962  15.7737241
  17.3914280  60.4130725  12.0932332  17.4653288  60.2505897  12.9474182
  18.2083786  60.6020914  11.8492814  17.5230638  60.4167467  12.1830357
  32.0832602  55.5700230  15.0892448  32.0157103  55.5896189  14.2195034
  32.0688265  56.4130557  15.3148118  32.0711359  55.6973965  14.9944925
  13.3696060  46.8257529  10.0822216  12.5018485  46.8980128  10.1479825
  13.6571264  47.6279607  10.2710191  13.2835808  46.9551676  10.1196982
  22.4928949  46.9735388  18.4133537  23.2382541  46.7845198  17.9996963
  22.0766253  47.4993626  17.8547394  22.5413923  47.0237533  18.2698111
  29.8691220  54.3444616  13.3639042  30.4199141  53.7112685  13.6036134
  29.8535335  54.8760009  14.0554547  29.9476416  54.3293565  13.5017901
  16.5213610  58.1783214  17.9098936  16.0225304  58.8898981  17.9883824
  17.3313835  58.4983880  17.8717098  16.5669717  58.3310062  17.9155504
  12.7841728  57.4406167  12.1561657  12.4954977  56.8143638  12.6907384
  13.6525076  57.3826454  12.2226337  12.8701980  57.3393711  12.2452611
  23.5719626  52.5840950  12.4743639  23.2284392  51.8631285  12.8250888
  23.6712668  52.3754801  11.6321997  23.5361669  52.4465153  12.4015319
  24.0332655  59.0466654   8.0167627  24.5990688  59.7059864   7.9326170
  23.3860558  59.3916352   8.4884029  24.0211411  59.1948595   8.0740383
  15.4480668  51.0364258  23.2061234  14.6380444  51.3422038  23.0951076
  15.9255355  51.7569840  23.3213818  15.3984147  51.1878859  23.2068305
  14.3072228  60.2509979  13.4544137  13.7852982  60.3910271  14.1396002
  14.6946248  59.4920643  13.6446254  14.2875929  60.1595503  13.5845214
  11.2963412  50.3015788   7.5239092  11.0088208  49.9317058   6.7871039
  11.9833880  50.7710643   7.2622797  11.3552309  50.3162757   7.3754168
  20.5039233  61.9905438   7.4404706  20.2625909  61.2573299   7.0331771
  20.6840566  62.5392295   6.7871039  20.4946857  61.9627829   7.2834929
  15.7338554  57.2813998   8.8525628  15.5381336  57.8888733   8.2585931
  15.9572899  56.5881942   8.3717302  15.7373195  57.2691524   8.6941709
  14.1317084  54.1668736   8.9706496  14.8539736  54.3309894   8.5110302
  13.6525076  54.8878401   8.8645836  14.1680814  54.2966966   8.8872110
  22.0910591  50.5032535  14.3503181  21.2521692  50.5293814  14.1141445
  22.1614959  51.1503270  14.9308528  21.9778985  50.6028661  14.4012298
  11.7824700  56.5726808  18.0760636  12.2945797  56.8511062  17.4269396
  11.4961043  57.3116102  18.4423449  11.8159563  56.7229162  18.0350514
  20.5379870  47.4017912   9.0830797  21.2406222  47.2025660   8.6050756
  20.2724058  46.6293854   9.3899641  20.6026502  47.2580878   9.0576239
  25.9668115  55.7100522  11.6364423  25.8802090  55.8655948  12.4899202
  25.5118595  56.3538597  11.2623828  25.8871372  55.8276277  11.7071530
   8.8691607  51.0797000   8.3724373   8.9707743  51.8823162   8.7005348
   9.6647493  50.8784336   8.0747453   9.0019512  51.1682899   8.3759728
  15.3008426  48.6653197  18.1361678  15.1091623  48.6808331  18.9861101
  16.1507022  48.8616871  18.1128333  15.3984148  48.6967548  18.2584973
   9.6855339  51.1944178  16.1145494   9.5440831  50.3428119  16.2390002
   9.9695902  51.2372839  15.2907700   9.7063185  51.0743929  16.0113118
  19.8393931  53.0311269  10.2589983  19.5928645  52.9507020  11.0926772
  20.1679054  52.2464737  10.0652510  19.8515175  52.9037534  10.3537506
  23.7341980  59.7394628  14.0476764  23.5956339  60.4375674  14.5525506
  22.9541978  59.5843284  13.6912946  23.5985207  59.8194795  14.0703038
  22.0720065  56.0391003  20.2999146  22.0668104  55.1670820  20.3041572
  22.7781059  56.2379173  19.8268601  22.1765069  55.9394878  20.2306181
  15.7990958  55.7667987  19.6712966  15.9434334  56.3469195  19.0356076
  16.1466607  56.1444284  20.3762820  15.8718420  55.9088691  19.6811961
  17.9710876  54.9658156  17.4538097  17.2234190  55.1589170  17.0486375
  18.1252401  54.1403375  17.2162219  17.8833303  54.8723267  17.3583503
  14.8718713  63.9570759  16.5373993  15.0208277  63.3973675  15.8847397
  15.6518715  64.0362761  16.9206511  15.0092807  63.8856325  16.4970942
  25.2295353  59.0972882   4.8093263  24.8502162  58.3110020   4.8022552
  24.5661598  59.6459739   4.6664907  25.0753828  59.0617706   4.7874060
  17.3972014  64.1285402  17.8158483  17.3215685  63.4594213  18.3709272
  17.3261873  64.8303190  18.3299150  17.3752621  64.1330309  17.9735332
  18.2112653  48.8608706  18.3433501  18.6685267  49.5932681  18.4706293
  18.2868982  48.4375172  19.1020757  18.2903623  48.9065944  18.4734578
  10.4545644  49.1074526  19.4322945   9.9187833  48.4954884  19.7483712
  10.5163409  49.6822662  20.0856611  10.3841277  49.1021454  19.5758372
  22.6839979  42.0398582  12.2127344  22.8023547  42.4975045  11.4794647
  22.5102154  41.2343843  11.9263562  22.6759150  41.9892354  12.0628278
  18.0542261  62.6486401   8.6482089  18.8192152  62.3796045   8.3264754
  17.9520351  62.1636411   9.3652152  18.1523756  62.5375965   8.7061917
  16.0895031  50.8510810  15.1875325  15.2991105  50.6702270  15.5092661
  16.4855654  50.0737763  15.1705620  16.0311907  50.7098271  15.2327873
  21.4738717  58.4853240  12.9134771  20.7983719  58.2538473  13.4148158
  21.4831093  57.8774423  12.2876876  21.3757222  58.3612166  12.8950923
  18.6032861  53.3271069  19.6698824  18.5392002  54.1881026  19.5418961
  18.7430049  53.0103063  18.8694375  18.6148331  53.4071236  19.5327037
  23.4755452  61.3418373   5.1444949  23.5575289  62.1485359   4.8206400
  23.9605194  61.3614332   5.8685722  23.5592609  61.4639035   5.2031848
  17.2851955  56.0203209  13.8115027  16.8614204  56.2207708  13.0754045
  17.1096810  55.1732057  13.9239327  17.1962835  55.9251990  13.7188717
  16.7863648  67.5353722  16.2736484  17.2759579  66.8364511  16.0912149
  16.2147881  67.2377592  16.8612542  16.7748178  67.3879945  16.3337525
  12.5734400  56.5155260   9.2442999  12.7299019  56.4502063  10.0998992
  12.9134993  57.2903813   9.0321679  12.6467635  56.6204458   9.3397594
  19.1113544  55.8913144   8.1136363  19.6529090  55.3883525   8.5774983
  19.4260103  55.8378338   7.3025848  19.2377942  55.8092565   8.0620175
  22.9830652  60.1015791  25.2263275  23.7965517  59.8300940  25.3868407
  22.8225618  59.8023331  24.4223471  23.0800600  60.0170717  25.1308681
  20.2602814  50.7849448  18.1658663  20.4744783  50.1460362  17.6122017
  19.6436713  51.2295272  17.7366525  20.2008143  50.7559592  18.0209094
  21.6707482  63.7068197   9.6112884  21.2787273  63.4034912   8.8935750
  21.8260554  64.5437287   9.4217838  21.6361072  63.7852033   9.4769381
   9.1468661  53.6990211   9.5603767   9.5267626  54.1174756   8.8964034
   8.5724026  54.2803666   9.8672610   9.1179986  53.8468069   9.5080508
  22.4241902  52.3938513  19.1041970  21.6118584  52.0864404  19.1855143
  22.8831836  51.9137514  19.6684682  22.3722287  52.2775006  19.1996564
  21.8347157  60.2718185   9.5518915  21.4761811  60.4432828  10.3282947
  21.3485867  60.7331391   8.9946913  21.7105853  60.3657156   9.5844184
  19.6517542  43.8949384  13.1546006  18.7811100  43.8688105  13.1079315
  19.9057884  43.7226576  12.3371852  19.5611103  43.8659528  13.0266143
  19.5195409  53.7998585  23.8870673  19.9895041  54.4240701  24.2738547
  19.5657290  53.1315560  24.4463887  19.5963285  53.7933265  24.0270744
  16.6766683  45.9055612  14.6119476  16.1605172  45.2135804  14.7371055
  16.1160612  46.5726389  14.5582075  16.5173196  45.9018870  14.6225542
  18.7458916  46.4448572  16.4412329  18.3590670  46.4697604  17.2225859
  18.2591854  45.8790251  15.9886845  18.6171425  46.3644323  16.4900233
  22.9951896  61.1622081  20.4986115  23.6331616  60.6682277  20.1648571
  22.3525987  61.0899482  19.9138342  22.9946122  61.0781090  20.3628470
  24.7208896  53.0111227  15.0652031  24.2936504  52.9237576  14.3100131
  24.0834949  53.1189003  15.6506875  24.5638503  53.0143887  15.0397473
  18.4116058  43.3315558  18.7322589  19.0409176  43.8675858  18.4543659
  18.5801921  43.2392917  19.5836154  18.5293853  43.3976920  18.8171117
  18.2129973  48.1186753  21.0049000  19.0403402  47.8471901  21.0607615
  18.2337819  48.9147594  21.3612819  18.3382823  48.1966507  21.0664183
  23.0506152  61.8541890  17.1391472  23.8398531  61.5030954  17.2593554
  23.2249750  62.6678278  16.8768106  23.1926434  61.9227747  17.1179340
  12.7899463  55.2650615  14.1919261  11.9487469  55.1654490  14.3998155
  12.9989471  56.0346096  14.5433582  12.6964155  55.3642659  14.2746576
  10.2675030  52.8870152  12.0204012   9.8731728  52.9613164  11.2454121
   9.7115147  53.2728099  12.5712373  10.1277842  52.9551927  11.9871671
  21.9039977  45.8651446  11.7007891  22.1089570  45.7973754  12.5464888
  21.5766401  46.6710268  11.6329068  21.8855225  45.9737387  11.8167546
  16.6016128  53.1932015  13.4416859  16.2979265  52.6388003  14.0427266
  15.8995549  53.3724225  12.9544893  16.4532338  53.1376797  13.4586564
  15.6582225  50.5032534   8.0061560  15.9341959  49.7851447   7.5939128
  16.2580894  51.1017454   7.7982666  15.7875489  50.4852905   7.9142322
  14.6634479  60.4081735  18.1488956  14.5554834  60.4183797  19.0151014
  14.8730260  61.2336516  17.9593910  14.6784590  60.5322810  18.2493048
  25.1573664  46.4183211  11.1810656  24.5447978  46.9053613  11.5664388
  25.2537839  45.7426701  11.7248307  25.0811562  46.3901519  11.3189514
  19.1592745  48.1746052   6.2808155  19.6136492  48.3456612   7.0056000
  19.6332791  47.5614162   5.8805931  19.2961065  48.1096937   6.3281917
  12.6808271  57.6594378  15.6110894  12.0896204  58.3003876  15.5813909
  13.4429294  58.0831995  15.5842193  12.7056531  57.8170216  15.6026041
  13.0768894  48.8196375  16.2778912  13.5370375  48.8935305  17.0154035
  13.1225000  49.6177629  15.9278733  13.1519449  48.9490523  16.3351668
  14.7252243  49.4863070  20.8450939  14.3337808  48.8396417  21.2806716
  14.8938106  50.0774506  21.4645194  14.6923154  49.4777338  21.0013645
  28.7998692  57.4900147  16.6088172  28.8581816  57.9386796  17.3548149
  28.1665160  57.8998960  16.1718252  28.7149987  57.6173882  16.6540720
  22.4397787  63.1103689  13.0442918  22.2417476  63.5994504  12.3499130
  21.8185498  63.3144931  13.6227052  22.3185351  63.2120228  13.0266142
  16.5005765  54.8788586   7.3853163  17.2447810  55.2662862   7.6236113
  16.6466462  54.0346011   7.5493650  16.6316350  54.8119059   7.4447132
  18.4185341  46.6738845  12.4185024  17.5721386  46.8461653  12.2926374
  18.4156473  45.8688189  12.7550852  18.2932491  46.5799874  12.4496151
  19.4883641  50.4514059  13.2847082  19.0143595  49.9255821  13.7952393
  19.8601777  49.9043532  12.7161944  19.4733530  50.2930056  13.2762229
   9.8656671  52.4485566  18.6530628  10.7282284  52.3481275  18.5667958
   9.5348454  51.8680275  18.0916200   9.9441868  52.3477193  18.5576034
  25.7520372  55.5116435  14.6953863  25.5118595  54.6722850  14.6996289
  26.2312379  55.5916602  15.4194636  25.7872555  55.3997835  14.8028665
  21.4167141  51.3450614   6.3472836  20.8890159  51.4279358   5.6578545
  21.8762849  52.0868485   6.3437480  21.4068991  51.4671276   6.2447531
  27.7525559  52.2917892  12.6483122  27.5135329  52.2513726  11.8103906
  27.9159460  53.1389044  12.7748843  27.7415862  52.4109977  12.5436604
  24.3571589  56.6767842  18.5788167  25.0805788  56.2240368  18.3999187
  24.0921551  56.9572507  17.7960495  24.4252862  56.6518810  18.4366882
  13.2258457  51.2728015  15.3141046  12.6011527  51.2846407  14.7066999
  12.8904052  51.7488190  15.9632286  13.0843949  51.3446532  15.3197614
   9.9384133  59.3328475  16.7544810   9.4084057  58.6420914  16.8039785
  10.2109226  59.3238661  15.9257519   9.9008855  59.2295607  16.6392226
  20.9704223  59.9154178   5.4782493  21.6938422  60.3812291   5.3347066
  20.5304814  59.9827787   4.7280090  21.0119916  59.9938014   5.3467274
  20.1390378  56.7751720  16.7283182  19.5247372  56.2309770  17.0231817
  20.6557663  56.2615956  16.2488998  20.1246041  56.6188129  16.7007410
  19.3786676  57.8455990  14.4627480  18.9514284  57.2205708  14.0292916
  19.3711620  57.5630912  15.2886488  19.3145817  57.7108771  14.5207308
  12.4949203  52.8821163  17.5315914  12.6542689  52.1264487  17.9367636
  12.3142096  53.4312102  18.1856652  12.4914562  52.8514977  17.6878620
  20.4369506  45.0482398  18.0866704  19.9410067  45.2446073  17.3958271
  21.1938568  45.4475067  17.9155506  20.4756330  45.1360132  17.9586841
  17.7072385  48.7224744  14.6770014  17.7314872  48.1884857  13.9882794
  17.9583859  48.2142053  15.3395605  17.7482304  48.5685648  14.6734659
  13.9873707  47.4495563  14.0575759  14.0272079  47.9504769  14.7710466
  13.1623372  47.5405956  13.7881682  13.8713233  47.5377379  14.1226297
  16.1703320  57.0156303  22.1596053  15.3198951  57.1528017  22.2953698
  16.3331448  56.2820081  22.6043755  16.0687184  56.9270404  22.2451653
  15.4088071  53.9656072  16.3549658  14.5780001  54.1329890  16.1484906
  15.3539588  53.5892023  17.1398543  15.2777486  53.9345804  16.4398186
  13.2171854  47.4564965  21.9906068  13.8424558  46.9127098  22.2635501
  12.7622334  46.9759883  21.4213859  13.2420115  47.3054447  21.9467662
  13.7824115  52.2411664   6.8839775  13.9227076  52.7384128   7.5868417
  14.2806648  51.5397958   7.0253989  13.8765196  52.2113643   7.0091354
  26.7906903  55.6394252  17.0818716  27.3824743  56.2791503  17.1136915
  27.2265897  54.9417289  17.3710783  26.9425334  55.6312603  17.1299549
  15.3903320  49.0392750   4.1877794  15.7119161  48.5595833   3.5337057
  15.6530264  49.8492397   3.9968606  15.4769345  49.0882648   4.0633286
  18.6200293  60.0611625  17.7076610  18.1125384  60.6147472  18.1517241
  18.3226939  60.1219915  16.8895385  18.5005178  60.1517936  17.6525067
  20.7862475  48.4264944  16.5501273  21.2117546  47.9737471  15.9384800
  20.1719468  47.8725015  16.8266061  20.7591120  48.2778921  16.5006299
  19.2256698  44.8980044   9.9591850  18.5825016  44.7477691  10.5276989
  18.8856105  44.6522389   9.1940955  19.0801775  44.8392167   9.9294866
  23.8156044  52.8539471   9.3821859  23.1447234  53.3969173   9.2534925
  24.5095795  53.3234326   9.1403554  23.8184912  53.0037742   9.3277387
  17.8642778  64.9936183  14.6133617  17.6408432  64.2355012  14.9817644
  17.3752621  65.0234204  13.8914057  17.7586227  64.8858408  14.5610358
  23.9784172  49.3095355  12.2912232  24.3311782  48.8825078  12.9658031
  23.1198973  49.2246198  12.4213309  23.9033616  49.2340095  12.4107243
  12.6767857  51.9402874  10.3495079  11.9579846  52.3567007  10.6167942
  13.0480219  52.5057113   9.7986717  12.6259788  52.0852156  10.3077886
  21.9767438  52.5730723  16.2397074  21.9565365  52.3914018  17.0931853
  22.0246638  53.4442742  16.2156658  21.9802079  52.6747262  16.3620369
  19.9213767  59.1617915  22.1645551  19.8809622  58.5167592  21.5790707
  20.7337086  59.1054533  22.4770963  20.0356921  59.0576882  22.1242500
  16.5121235  65.2136641  12.0670702  16.0981634  64.5510771  11.6774544
  17.1968609  65.3614500  11.5466396  16.5519607  65.1377299  11.9327199
  19.8786529  64.3726726  12.8194318  19.4802812  64.4828997  12.0515139
  19.2637749  64.5808793  13.4020878  19.7285418  64.4200294  12.7925618
  18.4514431  50.9800874   5.6868458  17.8579270  51.3017871   5.1353025
  18.4889709  50.1341970   5.4789564  18.3688820  50.9025203   5.5751229
  25.4108232  44.4313766  13.2196545  24.9039096  43.7242906  13.1517722
  26.2075666  44.1006955  13.3497621  25.4535471  44.2786918  13.2295540
  21.3272248  50.9380379   9.1170208  21.0985941  50.9613080   8.2748567
  21.5870324  50.1137846   9.2365219  21.3318436  50.8196459   9.0095406
  15.6091476  52.7914852  18.7195309  15.0970379  52.1836035  19.0780340
  15.4370972  53.5071444  19.1869284  15.5081113  52.8078151  18.8411532
  10.4557191  51.2352427  21.3697670  10.2859781  51.8953802  20.8245877
  10.0123141  51.4458988  22.0910160  10.3656524  51.3638409  21.3959300
  14.3817010  49.4756925  10.4124404  14.8574376  49.8374005   9.7774585
  13.8805610  50.1313393  10.6924547  14.3782369  49.6251114  10.3601145
  27.6128372  58.9478693   6.2037409  27.9961978  59.6970049   6.4335506
  26.8172485  59.1944513   5.9449398  27.5522154  59.0948387   6.1994983
  19.4860546  50.7139096  21.1597564  20.0431977  50.4852906  20.5276030
  19.1621611  51.4744762  20.8832777  19.5206957  50.7922933  21.0254061
   7.3559255  54.1399293  16.6286160   6.8085975  53.4699938  16.7467029
   8.1451633  53.7729141  16.6929628   7.3911439  53.9864279  16.6554861
  17.2043664  53.8006750  22.1249571  17.9554991  54.1158427  22.4389125
  17.3966240  53.5985921  21.2983493  17.3435078  53.8174132  22.0492967
  16.4243663  51.6198125   3.7797788  16.8042628  51.6377754   2.9948903
  15.6836259  52.0652114   3.6588635  16.3712501  51.6879899   3.6461356
  24.0528954  49.9280316   9.3673367  24.0523180  49.7728973  10.2257643
  23.8485134  50.7743303   9.3114752  24.0228732  50.0300937   9.4861306
   6.1146225  53.3520100  13.7832183   5.9367986  52.8996709  14.5087099
   5.8265247  54.1546262  13.9670661   6.0459178  53.4042658  13.9175686
  21.7769806  54.6077818  13.0209574  22.2723471  53.8900813  12.9813594
  20.9669582  54.3048616  12.9064061  21.7313699  54.4575464  12.9983299
  23.8421625  57.3581505  15.7086702  24.2676696  56.8355927  15.1557127
  23.4778545  57.9562343  15.1875325  23.8508227  57.3691732  15.5495712
  13.4775705  65.6545723  14.4684048  13.7922264  66.4682111  14.4761830
  13.8869118  65.2695942  15.1366207  13.5843803  65.7174425  14.5688140
  20.4300224  61.0715770  12.0387860  20.9011402  61.7856032  12.2077845
  20.7660403  60.4714520  12.5747729  20.5495339  61.0887234  12.1420236
  22.5177209  62.6817083  24.2179932  22.6274174  61.8925644  24.5736679
  22.8468105  62.5923019  23.4154270  22.5829615  62.5522936  24.1522323
  17.3469719  45.8443240  18.9945955  17.4797625  45.0474234  19.3226930
  17.7314872  46.3709643  19.5744230  17.4226048  45.8043157  19.1289458
  21.0674171  60.8633704  18.8015552  20.5195117  60.2391587  18.5335618
  21.5287199  61.0527976  18.0859632  21.0541380  60.7992754  18.6565984
  20.4202074  42.7673566  15.5927048  19.6148038  42.6571296  15.9094886
  20.2908810  42.8686022  14.7356914  20.2822207  42.7657236  15.5135088
  23.8768035  48.9319058  16.1866745  23.2931024  49.4328265  15.7744312
  24.1972329  48.4248614  15.5531068  23.8381210  48.9310893  16.0325252
  16.4162834  47.8459653   6.4625420  17.2378528  48.0157966   6.2207114
  15.9532485  48.0006914   5.7391717  16.4693996  47.8941386   6.3197064
  15.0058166  45.8402415  17.2423848  15.5502579  45.4993542  17.8328190
  15.0595102  46.6987877  17.3845133  15.0947285  45.9157675  17.3505722
  10.8188725  59.6018831  14.1162656  11.4233582  59.5614665  13.4876477
  10.6116037  60.4489983  14.1466712  10.8777622  59.7206834  14.0278773
  20.6332497  61.8684776  15.3324894  21.4530871  61.7247742  15.5941189
  20.3526574  62.4930975  15.8741332  20.7129240  61.9395128  15.4512833
  37.1046147  69.5249628   8.2967770  37.0740152  70.3794265   8.4686039
  37.7027496  69.2244921   8.8553914  37.1883305  69.6066125   8.4042572
  30.3045832  68.6125279  13.0520700  29.4483728  68.7733777  13.1029817
  30.3513486  67.7417343  13.0725761  30.1844944  68.5076081  13.0626766
  33.6139549  74.8811805  22.6581157  34.3206316  74.3863836  22.7868091
  33.8027484  75.3220886  21.9283815  33.7467454  74.8730155  22.5690202
  33.1497653  70.6717323  15.6952352  33.6953613  71.3502410  15.7546322
  33.0914529  70.5304784  14.8353934  33.2213567  70.7509325  15.5764413
  21.7626860  66.3512406  13.6057346  21.1431891  65.7605054  13.4367361
  21.6610723  66.9423842  12.9721669  21.6564535  66.3516489  13.4862335
  28.8594755  68.0911948   7.9389809  29.5574920  68.2700076   8.4311272
  29.1747088  67.5682288   7.3160198  29.0090093  68.0405720   7.9191819
  21.4895993  69.8964688  15.8500915  21.3654690  70.4827134  16.4850734
  22.1414277  69.4024884  16.1513190  21.5669642  69.9103493  15.9886844
  26.5154334  73.0726405  15.1288426  27.1603336  72.5798848  14.8099374
  26.7556111  73.2151192  15.9554504  26.6464919  73.0203847  15.2037959
  29.0540425  75.9181311  14.7795319  29.3363668  75.1232717  14.5582074
  29.7826585  76.3961898  14.8000380  29.2029989  75.8715908  14.7498334
  27.0321619  63.4604345  12.0211084  26.7024949  63.9115488  11.3514782
  26.3566621  63.3820508  12.5684090  26.8832055  63.5155480  12.0034307
  34.2398027  59.4489868  10.2660694  33.9251468  60.1393346  10.6981117
  33.7224968  59.3934650   9.5646195  34.1162497  59.5424756  10.2257643
  25.2377573  61.5216633   7.5034031  25.9923541  61.8894950   7.2651082
  25.0605108  61.8956188   8.2713211  25.3232051  61.6314821   7.5818920
  38.5312472  67.6711074  15.5481571  37.6940893  67.7413261  15.7829165
  38.5000703  67.6735569  14.6755873  38.4030754  67.6821301  15.4541119
  24.9277201  69.8144109  21.2629939  25.0997704  69.7050004  22.1115221
  25.4646558  70.4598515  21.0261132  25.0322205  69.8936111  21.3535036
  23.5934638  63.9286952   4.2012144  23.4110211  64.1458833   3.3753137
  24.4560251  64.0425965   4.2570759  23.6939227  63.9776850   4.0866631
  29.2734357  60.9313363   7.2361168  30.0020517  60.7529318   6.7899324
  29.3629250  61.7731443   7.4468346  29.3941019  61.0297241   7.2014686
  33.2542658  71.8666750  11.1393462  34.0100173  72.2998265  11.1782371
  33.3604982  71.2171520  11.7128098  33.3812828  71.8344234  11.2291488
  36.2922829  75.6940028  11.8895865  35.8558060  75.6976770  12.6454837
  35.9585744  76.3745527  11.4575443  36.1785449  75.7952483  11.9376698
  30.8651902  77.7348360  23.2139015  31.6492319  77.8479208  23.5794758
  30.6648497  76.9089497  23.4097701  30.9517928  77.6295080  23.2973401
  19.2338918  72.4076040  16.0982859  18.9677333  71.5915157  16.2573850
  19.2477482  72.4529196  15.2278375  19.1963640  72.2932945  15.9936341
  36.2120312  62.7353855  14.1325293  36.8546220  62.8051960  14.7187208
  36.4643332  62.0683078  13.6304835  36.3442444  62.6480204  14.1452572
  23.9837524  65.9454419  18.7449867  23.2909321  65.4751398  18.9910599
  24.5997851  65.7192723  19.3191574  23.9722054  65.8421551  18.8659020
  39.4267175  72.4120947  10.7815502  40.0883609  71.8511616  10.6811411
  38.7858587  71.9172978  11.1068194  39.4296042  72.2557356  10.8147843
  19.6432331  73.1934820  13.3794604  19.4607905  73.1681706  12.5266896
  20.3782000  73.6633758  13.4183512  19.7246395  73.2596182  13.2592522
  22.7078083  69.9119823  19.8876712  23.4318055  69.8972853  20.3741607
  22.8094220  70.6215178  19.3898680  22.8296292  70.0144526  19.8855499
  30.0823032  73.3918907  24.7525659  29.2896013  73.7062419  24.9378279
  30.1971960  73.6070376  23.9146444  29.9818443  73.4702744  24.6563994
  32.7554351  70.1152898   9.0420675  32.8501206  70.8542193   9.4960301
  32.1313195  69.6870374   9.4755240  32.6763382  70.1614219   9.1728823
  31.0106825  73.2939111  19.6910956  31.5845687  72.6566355  19.8459520
  30.9321629  73.2943193  18.8220614  31.0840060  73.2004222  19.5857367
  19.6103242  70.0728321  13.5293670  20.1876744  69.9364771  14.1685915
  18.9117303  69.6164105  13.7839255  19.5924263  69.9850587  13.6615960
  26.3670544  71.7262376  11.7432153  26.1089788  70.8934111  11.7163453
  26.4219027  71.9519989  10.9024654  26.3370322  71.6360147  11.6152290
  31.4471594  63.8290827  11.8436246  30.7427921  63.3400012  12.0020165
  31.4956568  63.8413301  10.9724690  31.3501646  63.7580475  11.7375586
  25.3405256  69.2800139  12.2297048  24.7654847  69.4392307  12.8661009
  24.9640932  68.6435548  11.7665499  25.2008068  69.2097952  12.2551607
  29.0078545  67.7523488  17.0889427  28.6192977  67.3277706  16.4341618
  28.3433243  68.0005638  17.5966453  28.8525472  67.7262209  17.0677294
  38.6501814  67.5098493   9.8637257  38.3938379  66.6978434   9.6735139
  39.4931128  67.5176060   9.6367444  38.7367839  67.3910490   9.8022074
  32.8304906  61.4498117  14.6013411  33.2115418  60.7676288  14.9881285
  32.0268190  61.1607719  14.4189075  32.7681368  61.3065165  14.6317467
  36.3326973  74.6648089  19.6995809  36.0965610  73.8336153  19.5807870
  36.9770202  74.6133696  20.2850653  36.3921644  74.5345777  19.7681703
  25.9825391  75.4543610  10.4138546  26.6199338  75.2155358  10.9590339
  26.4080463  75.6580769   9.6791706  26.1401557  75.4494620  10.3855703
  26.7896747  63.9552315  24.4676019  26.4750188  64.7251878  24.2045582
  26.4686679  63.3922571  23.8828246  26.6955666  63.9862584  24.3417369
  37.3563394  74.4492537  15.7624104  37.0509211  75.1820594  16.1237419
  36.6369609  74.0430467  15.4816890  37.2050736  74.4974270  15.7737241
  28.3646863  75.9316033  12.0932332  28.4385871  75.7691204  12.9474182
  29.1816369  76.1206222  11.8492814  28.4963222  75.9352775  12.1830357
  43.0565186  71.0885538  15.0892448  42.9889686  71.1081497  14.2195034
  43.0420848  71.9315865  15.3148118  43.0443942  71.2159273  14.9944925
  24.3428644  62.3442836  10.0822216  23.4751069  62.4165436  10.1479825
  24.6303848  63.1464915  10.2710191  24.2568392  62.4736984  10.1196982
  33.4661532  62.4920696  18.4133537  34.2115124  62.3030506  17.9996963
  33.0498837  63.0178934  17.8547394  33.5146507  62.5422841  18.2698111
  40.8423803  69.8629924  13.3639042  41.3931725  69.2297993  13.6036134
  40.8267919  70.3945317  14.0554547  40.9209000  69.8478872  13.5017901
  27.4946194  73.6968522  17.9098936  26.9957888  74.4084289  17.9883824
  28.3046418  74.0169188  17.8717098  27.5402301  73.8495370  17.9155504
  23.7574312  72.9591475  12.1561657  23.4687560  72.3328946  12.6907384
  24.6257660  72.9011762  12.2226337  23.8434564  72.8579019  12.2452611
  34.5452209  68.1026258  12.4743639  34.2016975  67.3816593  12.8250888
  34.6445252  67.8940109  11.6321997  34.5094252  67.9650461  12.4015319
  26.4213252  66.5549566  23.2061234  25.6113028  66.8607346  23.0951076
  26.8987939  67.2755148  23.3213818  26.3716731  66.7064167  23.2068305
  25.2804812  75.7695287  13.4544137  24.7585565  75.9095579  14.1396002
  25.6678832  75.0105951  13.6446254  25.2608513  75.6780811  13.5845214
  22.2695996  65.8201096   7.5239092  21.9820791  65.4502366   6.7871039
  22.9566464  66.2895951   7.2622797  22.3284893  65.8348065   7.3754168
  26.7071137  72.7999306   8.8525628  26.5113920  73.4074041   8.2585931
  26.9305483  72.1067250   8.3717302  26.7105778  72.7876832   8.6941709
  25.1049667  69.6854044   8.9706496  25.8272319  69.8495202   8.5110302
  24.6257660  70.4063709   8.8645836  25.1413398  69.8152274   8.8872110
  33.0643175  66.0217843  14.3503181  32.2254275  66.0479122  14.1141445
  33.1347542  66.6688578  14.9308528  32.9511568  66.1213969  14.4012298
  22.7557284  72.0912116  18.0760636  23.2678381  72.3696370  17.4269396
  22.4693627  72.8301410  18.4423449  22.7892147  72.2414470  18.0350514
  31.5112453  62.9203220   9.0830797  32.2138806  62.7210968   8.6050756
  31.2456642  62.1479162   9.3899641  31.5759085  62.7766186   9.0576239
  36.9400699  71.2285830  11.6364423  36.8534673  71.3841256  12.4899202
  36.4851179  71.8723905  11.2623828  36.8603955  71.3461585  11.7071530
  19.8424190  66.5982308   8.3724373  19.9440327  67.4008470   8.7005348
  20.6380077  66.3969644   8.0747453  19.9752096  66.6868207   8.3759728
  26.2741009  64.1838505  18.1361678  26.0824206  64.1993639  18.9861101
  27.1239605  64.3802179  18.1128333  26.3716731  64.2152856  18.2584973
  20.6587922  66.7129486  16.1145494  20.5173414  65.8613427  16.2390002
  20.9428486  66.7558147  15.2907700  20.6795768  66.5929236  16.0113118
  30.8126515  68.5496577  10.2589983  30.5661229  68.4692328  11.0926772
  31.1411638  67.7650044  10.0652510  30.8247758  68.4222842  10.3537506
  34.7074564  75.2579936  14.0476764  34.5688923  75.9560982  14.5525506
  33.9274561  75.1028592  13.6912946  34.5717790  75.3380103  14.0703038
  33.0452649  71.5576311  20.2999146  33.0400687  70.6856128  20.3041572
  33.7513643  71.7564480  19.8268601  33.1497653  71.4580185  20.2306181
  26.7723542  71.2853295  19.6712966  26.9166918  71.8654503  19.0356076
  27.1199191  71.6629592  20.3762820  26.8451003  71.4273999  19.6811961
  28.9443459  70.4843464  17.4538097  28.1966773  70.6774478  17.0486375
  29.0984985  69.6588683  17.2162219  28.8565887  70.3908575  17.3583503
  29.1845236  64.3794014  18.3433501  29.6417850  65.1117989  18.4706293
  29.2601565  63.9560480  19.1020757  29.2636206  64.4251252  18.4734578
  21.4278228  64.6259834  19.4322945  20.8920417  64.0140192  19.7483712
  21.4895992  65.2007970  20.0856611  21.3573860  64.6206762  19.5758372
  33.6572562  57.5583889  12.2127344  33.7756130  58.0160353  11.4794647
  33.4834738  56.7529151  11.9263562  33.6491733  57.5077662  12.0628278
  27.0627614  66.3696118  15.1875325  26.2723689  66.1887578  15.5092661
  27.4588237  65.5923071  15.1705620  27.0044490  66.2283579  15.2327873
  32.4471301  74.0038548  12.9134771  31.7716302  73.7723781  13.4148158
  32.4563677  73.3959731  12.2876876  32.3489805  73.8797474  12.8950923
  29.5765445  68.8456377  19.6698824  29.5124586  69.7066334  19.5418961
  29.7162632  68.5288371  18.8694375  29.5880915  68.9256544  19.5327037
  28.2584538  71.5388517  13.8115027  27.8346788  71.7393016  13.0754045
  28.0829394  70.6917365  13.9239327  28.1695419  71.4437298  13.7188717
  23.5466983  72.0340568   9.2442999  23.7031603  71.9687371  10.0998992
  23.8867577  72.8089121   9.0321679  23.6200218  72.1389766   9.3397594
  30.0846128  71.4098452   8.1136363  30.6261673  70.9068833   8.5774983
  30.3992687  71.3563646   7.3025848  30.2110525  71.3277873   8.0620175
  33.9563235  75.6201099  25.2263275  34.7698101  75.3486248  25.3868407
  33.7958202  75.3208639  24.4223471  34.0533184  75.5356025  25.1308681
  31.2335397  66.3034756  18.1658663  31.4477367  65.6645670  17.6122017
  30.6169297  66.7480580  17.7366525  31.1740727  66.2744900  18.0209094
  20.1201245  69.2175519   9.5603767  20.5000210  69.6360064   8.8964034
  19.5456610  69.7988974   9.8672610  20.0912570  69.3653377   9.5080508
  33.3974485  67.9123821  19.1041970  32.5851167  67.6049712  19.1855143
  33.8564420  67.4322822  19.6684682  33.3454870  67.7960314  19.1996564
  30.6250126  59.4134692  13.1546006  29.7543684  59.3873413  13.1079315
  30.8790467  59.2411884  12.3371852  30.5343686  59.3844836  13.0266143
  30.4927993  69.3183893  23.8870673  30.9627624  69.9426009  24.2738547
  30.5389873  68.6500868  24.4463887  30.5695869  69.3118573  24.0270744
  27.6499267  61.4240920  14.6119476  27.1337755  60.7321112  14.7371055
  27.0893195  62.0911697  14.5582075  27.4905780  61.4204178  14.6225542
  29.7191500  61.9633880  16.4412329  29.3323253  61.9882912  17.2225859
  29.2324437  61.3975559  15.9886845  29.5904009  61.8829631  16.4900233
  33.9684479  76.6807389  20.4986115  34.6064200  76.1867585  20.1648571
  33.3258571  76.6084790  19.9138342  33.9678706  76.5966398  20.3628470
  35.6941480  68.5296535  15.0652031  35.2669088  68.4422884  14.3100131
  35.0567532  68.6374311  15.6506875  35.5371087  68.5329195  15.0397473
  29.3848642  58.8500866  18.7322589  30.0141760  59.3861166  18.4543659
  29.5534504  58.7578225  19.5836154  29.5026436  58.9162228  18.8171117
  29.1862557  63.6372061  21.0049000  30.0135986  63.3657209  21.0607615
  29.2070403  64.4332902  21.3612819  29.3115407  63.7151815  21.0664183
  34.0238736  77.3727198  17.1391472  34.8131114  77.0216262  17.2593554
  34.1982334  78.1863586  16.8768106  34.1659018  77.4413055  17.1179340
  23.7632046  70.7835923  14.1919261  22.9220053  70.6839798  14.3998155
  23.9722054  71.5531404  14.5433582  23.6696739  70.8827967  14.2746576
  21.2407613  68.4055460  12.0204012  20.8464311  68.4798472  11.2454121
  20.6847730  68.7913407  12.5712373  21.1010426  68.4737235  11.9871671
  32.8772560  61.3836754  11.7007891  33.0822154  61.3159062  12.5464888
  32.5498984  62.1895576  11.6329068  32.8587808  61.4922695  11.8167546
  27.5748711  68.7117323  13.4416859  27.2711849  68.1573311  14.0427266
  26.8728132  68.8909532  12.9544893  27.4264921  68.6562105  13.4586564
  26.6314808  66.0217842   8.0061560  26.9074543  65.3036755   7.5939128
  27.2313478  66.6202762   7.7982666  26.7608073  66.0038213   7.9142322
  36.1306248  61.9368519  11.1810656  35.5180562  62.4238921  11.5664388
  36.2270423  61.2612009  11.7248307  36.0544146  61.9086827  11.3189514
  30.1325329  63.6931360   6.2808155  30.5869075  63.8641920   7.0056000
  30.6065375  63.0799470   5.8805931  30.2693649  63.6282245   6.3281917
  23.6540854  73.1779686  15.6110894  23.0628788  73.8189184  15.5813909
  24.4161878  73.6017303  15.5842193  23.6789115  73.3355524  15.6026041
  24.0501477  64.3381683  16.2778912  24.5102959  64.4120613  17.0154035
  24.0957584  65.1362937  15.9278733  24.1252032  64.4675830  16.3351668
  25.6984827  65.0048378  20.8450939  25.3070392  64.3581725  21.2806716
  25.8670690  65.5959814  21.4645194  25.6655737  64.9962646  21.0013645
  39.7731276  73.0085455  16.6088172  39.8314400  73.4572104  17.3548149
  39.1397743  73.4184268  16.1718252  39.6882571  73.1359190  16.6540720
  27.4738349  70.3973894   7.3853163  28.2180394  70.7848170   7.6236113
  27.6199045  69.5531319   7.5493650  27.6048934  70.3304367   7.4447132
  29.3917924  62.1924153  12.4185024  28.5453969  62.3646961  12.2926374
  29.3889057  61.3873497  12.7550852  29.2665074  62.0985182  12.4496151
  30.4616225  65.9699367  13.2847082  29.9876179  65.4441129  13.7952393
  30.8334361  65.4228840  12.7161944  30.4466114  65.8115364  13.2762229
  20.8389255  67.9670874  18.6530628  21.7014868  67.8666583  18.5667958
  20.5081038  67.3865583  18.0916200  20.9174451  67.8662501  18.5576034
  36.7252955  71.0301743  14.6953863  36.4851178  70.1908158  14.6996289
  37.2044963  71.1101910  15.4194636  36.7605139  70.9183143  14.8028665
  32.3899724  66.8635922   6.3472836  31.8622743  66.9464666   5.6578545
  32.8495433  67.6053793   6.3437480  32.3801575  66.9856584   6.2447531
  38.7258142  67.8103200  12.6483122  38.4867912  67.7699034  11.8103906
  38.8892044  68.6574352  12.7748843  38.7148446  67.9295285  12.5436604
  35.3304172  72.1953150  18.5788167  36.0538371  71.7425676  18.3999187
  35.0654135  72.4757815  17.7960495  35.3985446  72.1704118  18.4366882
  24.1991041  66.7913323  15.3141046  23.5744111  66.8031715  14.7066999
  23.8636636  67.2673498  15.9632286  24.0576533  66.8631840  15.3197614
  31.1122962  72.2937028  16.7283182  30.4979955  71.7495078  17.0231817
  31.6290247  71.7801264  16.2488998  31.0978624  72.1373437  16.7007410
  30.3519259  73.3641298  14.4627480  29.9246867  72.7391016  14.0292916
  30.3444204  73.0816220  15.2886488  30.2878400  73.2294078  14.5207308
  23.4681786  68.4006471  17.5315914  23.6275273  67.6449795  17.9367636
  23.2874680  68.9497410  18.1856652  23.4647145  68.3700285  17.6878620
  31.4102089  60.5667706  18.0866704  30.9142651  60.7631381  17.3958271
  32.1671151  60.9660375  17.9155506  31.4488914  60.6545440  17.9586841
  28.6804969  64.2410052  14.6770014  28.7047456  63.7070165  13.9882794
  28.9316442  63.7327361  15.3395605  28.7214888  64.0870956  14.6734659
  24.9606291  62.9680871  14.0575759  25.0004663  63.4690077  14.7710466
  24.1355956  63.0591264  13.7881682  24.8445817  63.0562687  14.1226297
  27.1435904  72.5341611  22.1596053  26.2931534  72.6713325  22.2953698
  27.3064032  71.8005389  22.6043755  27.0419767  72.4455712  22.2451653
  26.3820654  69.4841380  16.3549658  25.5512584  69.6515198  16.1484906
  26.3272172  69.1077331  17.1398543  26.2510069  69.4531112  16.4398186
  24.1904438  62.9750273  21.9906068  24.8157141  62.4312406  22.2635501
  23.7354918  62.4945191  21.4213859  24.2152698  62.8239755  21.9467662
  24.7556698  67.7596972   6.8839775  24.8959659  68.2569436   7.5868417
  25.2539231  67.0583266   7.0253989  24.8497779  67.7298951   7.0091354
  37.7639486  71.1579560  17.0818716  38.3557327  71.7976811  17.1136915
  38.1998481  70.4602597  17.3710783  37.9157918  71.1497911  17.1299549
  26.3635904  64.5578058   4.1877794  26.6851745  64.0781141   3.5337057
  26.6262847  65.3677704   3.9968606  26.4501929  64.6067956   4.0633286
  29.5932876  75.5796933  17.7076610  29.0857967  76.1332780  18.1517241
  29.2959523  75.6405223  16.8895385  29.4737761  75.6703244  17.6525067
  31.7595059  63.9450252  16.5501273  32.1850130  63.4922779  15.9384800
  31.1452052  63.3910323  16.8266061  31.7323704  63.7964229  16.5006299
  30.1989281  60.4165352   9.9591850  29.5557599  60.2662998  10.5276989
  29.8588688  60.1707697   9.1940955  30.0534359  60.3577475   9.9294866
  34.7888628  68.3724779   9.3821859  34.1179818  68.9154481   9.2534925
  35.4828378  68.8419634   9.1403554  34.7917495  68.5223050   9.3277387
  34.9516755  64.8280663  12.2912232  35.3044365  64.4010386  12.9658031
  34.0931557  64.7431506  12.4213309  34.8766200  64.7525403  12.4107243
  23.6500440  67.4588182  10.3495079  22.9312429  67.8752315  10.6167942
  24.0212803  68.0242421   9.7986717  23.5992372  67.6037464  10.3077886
  32.9500021  68.0916031  16.2397074  32.9297948  67.9099326  17.0931853
  32.9979222  68.9628050  16.2156658  32.9534662  68.1932569  16.3620369
  30.8946351  74.6803223  22.1645551  30.8542206  74.0352900  21.5790707
  31.7069669  74.6239841  22.4770963  31.0089505  74.5762190  22.1242500
  29.4247015  66.4986182   5.6868458  28.8311854  66.8203179   5.1353025
  29.4622292  65.6527278   5.4789564  29.3421404  66.4210510   5.5751229
  36.3840815  59.9499074  13.2196545  35.8771680  59.2428214  13.1517722
  37.1808249  59.6192263  13.3497621  36.4268055  59.7972226  13.2295540
  32.3004831  66.4565687   9.1170208  32.0718524  66.4798388   8.2748567
  32.5602907  65.6323154   9.2365219  32.3051019  66.3381767   9.0095406
  26.5824060  68.3100160  18.7195309  26.0702963  67.7021343  19.0780340
  26.4103556  69.0256752  19.1869284  26.4813697  68.3263459  18.8411532
  21.4289774  66.7537735  21.3697670  21.2592365  67.4139110  20.8245877
  20.9855724  66.9644296  22.0910160  21.3389108  66.8823717  21.3959300
  25.3549594  64.9942233  10.4124404  25.8306960  65.3559313   9.7774585
  24.8538193  65.6498701  10.6924547  25.3514953  65.1436422  10.3601145
  30.4593130  66.2324404  21.1597564  31.0164560  66.0038214  20.5276030
  30.1354195  66.9930070  20.8832777  30.4939540  66.3108241  21.0254061
  18.3291839  69.6584601  16.6286160  17.7818558  68.9885246  16.7467029
  19.1184217  69.2914448  16.6929628  18.3644023  69.5049587  16.6554861
  28.1776247  69.3192058  22.1249571  28.9287574  69.6343735  22.4389125
  28.3698824  69.1171229  21.2983493  28.3167661  69.3359439  22.0492967
  27.3976247  67.1383433   3.7797788  27.7775212  67.1563062   2.9948903
  26.6568843  67.5837422   3.6588635  27.3445085  67.2065207   3.6461356
  17.0878808  68.8705408  13.7832183  16.9100569  68.4182017  14.5087099
  16.7997831  69.6731570  13.9670661  17.0191762  68.9227966  13.9175686
  32.7502389  70.1263126  13.0209574  33.2456055  69.4086121  12.9813594
  31.9402165  69.8233923  12.9064061  32.7046283  69.9760772  12.9983299
  34.8154208  72.8766813  15.7086702  35.2409280  72.3541235  15.1557127
  34.4511128  73.4747651  15.1875325  34.8240811  72.8877040  15.5495712
  31.4032808  76.5901078  12.0387860  31.8743986  77.3041340  12.2077845
  31.7392986  75.9899828  12.5747729  31.5227923  76.6072542  12.1420236
  33.4909792  78.2002391  24.2179932  33.6006758  77.4110951  24.5736679
  33.8200689  78.1108327  23.4154270  33.5562198  78.0708244  24.1522323
  28.3202303  61.3628548  18.9945955  28.4530208  60.5659542  19.3226930
  28.7047455  61.8894951  19.5744230  28.3958632  61.3228465  19.1289458
  32.0406754  76.3819012  18.8015552  31.4927700  75.7576895  18.5335618
  32.5019783  76.5713284  18.0859632  32.0273964  76.3178062  18.6565984
  31.3934658  58.2858874  15.5927048  30.5880622  58.1756604  15.9094886
  31.2641393  58.3871330  14.7356914  31.2554791  58.2842544  15.5135088
  34.8500618  64.4504366  16.1866745  34.2663607  64.9513573  15.7744312
  35.1704913  63.9433922  15.5531068  34.8113794  64.4496201  16.0325252
  27.3895418  63.3644961   6.4625420  28.2111112  63.5343274   6.2207114
  26.9265069  63.5192222   5.7391717  27.4426580  63.4126694   6.3197064
  25.9790750  61.3587723  17.2423848  26.5235162  61.0178850  17.8328190
  26.0327685  62.2173185  17.3845133  26.0679869  61.4342983  17.3505722
  31.6065080  77.3870084  15.3324894  32.4263454  77.2433050  15.5941189
  31.3259158  78.0116283  15.8741332  31.6861824  77.4580436  15.4512833
  37.7629330  79.4737623  24.4676019  37.4482771  80.2437186  24.2045582
  37.4419263  78.9107879  23.8828246  37.6688249  79.5047892  24.3417369
  44.4394116  78.0106004  18.4133537  45.1847708  77.8215814  17.9996963
  44.0231420  78.5364242  17.8547394  44.4879090  78.0608149  18.2698111
  37.2473593  79.7023813  18.1361678  37.0556790  79.7178947  18.9861101
  38.0972189  79.8987487  18.1128333  37.3449315  79.7338164  18.2584973
  40.1577820  79.8979322  18.3433501  40.6150434  80.6303297  18.4706293
  40.2334149  79.4745787  19.1020757  40.2368790  79.9436560  18.4734578
  38.6231850  76.9426228  14.6119476  38.1070339  76.2506420  14.7371055
  38.0625779  77.6097005  14.5582075  38.4638363  76.9389486  14.6225542
  40.6924084  77.4819188  16.4412329  40.3055837  77.5068220  17.2225859
  40.2057021  76.9160867  15.9886845  40.5636592  77.4014939  16.4900233
  40.3581225  74.3686174  18.7322589  40.9874343  74.9046474  18.4543659
  40.5267088  74.2763533  19.5836154  40.4759020  74.4347536  18.8171117
  40.1595140  79.1557368  21.0049000  40.9868570  78.8842517  21.0607615
  40.1802986  79.9518210  21.3612819  40.2847990  79.2337123  21.0664183
  42.3834673  76.0853014  18.0866704  41.8875234  76.2816689  17.3958271
  43.1403735  76.4845683  17.9155506  42.4221498  76.1730748  17.9586841
  35.9338875  78.4866179  14.0575759  35.9737246  78.9875385  14.7710466
  35.1088539  78.5776572  13.7881682  35.8178401  78.5747995  14.1226297
  35.1637021  78.4935581  21.9906068  35.7889725  77.9497714  22.2635501
  34.7087501  78.0130499  21.4213859  35.1885282  78.3425063  21.9467662
  42.7327642  79.4635560  16.5501273  43.1582714  79.0108087  15.9384800
  42.1184635  78.9095631  16.8266061  42.7056287  79.3149536  16.5006299
  39.2934886  76.8813856  18.9945955  39.4262792  76.0844849  19.3226930
  39.6780039  77.4080259  19.5744230  39.3691215  76.8413773  19.1289458
  42.3667241  73.8044182  15.5927048  41.5613205  73.6941912  15.9094886
  42.2373977  73.9056638  14.7356914  42.2287374  73.8027852  15.5135088
  36.9523333  76.8773031  17.2423848  37.4967746  76.5364158  17.8328190
  37.0060269  77.7358493  17.3845133  37.0412452  76.9528290  17.3505722
  22.3357789  36.3004628   9.5921203  23.0424556  35.8056659   9.7208138
  22.5245724  36.7413710   8.8623861  22.4685695  36.2922978   9.5030249
  19.4750083  39.7232165   7.4835279  19.5633429  39.5358305   8.3313489
  19.9039796  39.0769594   7.0840125  19.5512186  39.5995172   7.5507030
  17.0420543  39.0063325   6.4652941  16.4791378  38.5935934   6.9892602
  17.8041567  38.9316230   6.8846084  17.0714992  38.9340725   6.6045941
  13.6495441  31.2336933   8.1969986  13.8215945  31.1242827   9.0455268
  14.1864799  31.8791338   7.9601178  13.7540445  31.3128934   8.2875083
  19.5870143  39.1541184  10.1479062  20.3710559  39.2672031  10.5134804
  19.3866737  38.3282321  10.3437748  19.6736168  39.0487903  10.2313448
  19.7440536  41.0651286   3.7945518  18.9455782  40.8250786   4.0519386
  20.1926547  41.1165679   4.5412565  19.6915147  41.0373677   3.9430442
  18.8041273  34.8111731  11.6865706  18.0114254  35.1255242  11.8718326
  18.9190200  35.0263199  10.8486491  18.7036683  34.8895567  11.5904041
  19.7325066  34.7131934   6.6251003  20.3063927  34.0759179   6.7799567
  19.6539869  34.7136017   5.7560660  19.8058300  34.6197046   6.5197414
  25.0545213  36.0840912   6.6335856  24.8183851  35.2528977   6.5147917
  25.6988442  36.0326519   7.2190700  25.1139884  35.9538600   6.7021750
  15.5114987  25.3745138  11.4016066  15.1968428  26.1444701  11.1385629
  15.1904920  24.8115394  10.8168293  15.4173906  25.4055407  11.2757416
  26.0781634  35.8685361   2.6964150  25.7727451  36.6013418   3.0577466
  25.3587850  35.4623290   2.4156937  25.9268976  35.9167094   2.7077288
  31.7783426  32.5078361   2.0232495  31.7107926  32.5274320   1.1535081
  31.7639089  33.3508689   2.2488165  31.7662183  32.6352096   1.9284972
  16.2164434  35.1161345   4.8438983  15.7176128  35.8277113   4.9223871
  17.0264659  35.4362011   4.8057145  16.2620541  35.2688193   4.8495551
  15.1431492  27.9742389  10.1401281  14.3331268  28.2800169  10.0291123
  15.6206179  28.6947972  10.2553865  15.0934971  28.1256990  10.1408352
  23.4292804  36.6772759   0.9816811  23.2907163  37.3753805   1.4865553
  22.6492802  36.5221416   0.6252992  23.2936031  36.7572926   1.0043085
  21.7670889  32.9769135   7.2339192  21.7618928  32.1048951   7.2381619
  22.4731883  33.1757304   6.7608648  21.8715893  32.8773009   7.1646228
  15.4941782  32.7046118   6.6053013  15.6385158  33.2847327   5.9696123
  15.8417431  33.0822415   7.3102867  15.5669244  32.8466822   6.6152008
  14.5669537  40.8948890   3.4714039  14.7159101  40.3351806   2.8187444
  15.3469539  40.9740892   3.8546558  14.7043631  40.8234456   3.4310989
  17.0922838  41.0663533   4.7498530  17.0166509  40.3972344   5.3049318
  17.0212697  41.7681321   5.2639196  17.0703445  41.0708440   4.9075378
  16.4814472  44.4731853   3.2076531  16.9710403  43.7742642   3.0252196
  15.9098705  44.1755723   3.7952588  16.4699002  44.3258077   3.2677572
  22.6781476  37.0393922  12.1603322  23.4916341  36.7679071  12.3208454
  22.5176442  36.7401462  11.3563518  22.7751424  36.9548848  12.0648728
  22.1192726  29.3316645   6.0382017  21.3069407  29.0242535   6.1195190
  22.5782660  28.8515645   6.6024729  22.0673111  29.2153137   6.1336611
  19.2146233  30.7376716  10.8210719  19.6845864  31.3618832  11.2078593
  19.2608113  30.0693692  11.3803934  19.2914109  30.7311396  10.9610791
  22.6902720  38.1000213   7.4326162  23.3282440  37.6060408   7.0988618
  22.0476811  38.0277613   6.8478389  22.6896946  38.0159221   7.2968517
  22.7456976  38.7920021   4.0731519  23.5349355  38.4409086   4.1933601
  22.9200574  39.6056409   3.8108153  22.8877258  38.8605878   4.0519387
  14.3585303  37.3459866   5.0829003  14.2505658  37.3561929   5.9491061
  14.5681084  38.1714647   4.8933957  14.3735414  37.4700941   5.1833095
  28.4949516  34.4278279   3.5428219  28.5532640  34.8764927   4.2888195
  27.8615984  34.8377091   3.1058299  28.4100811  34.5552013   3.5880767
  22.1348611  40.0481820  -0.0217035  21.9368300  40.5372635  -0.7160823
  21.5136322  40.2523062   0.5567099  22.0136175  40.1498359  -0.0393812
  24.0522413  33.6145973   5.5128214  24.7756612  33.1618499   5.3339233
  23.7872375  33.8950638   4.7300541  24.1203686  33.5896941   5.3706929
  15.8654144  33.9534434   9.0936100  15.0149775  34.0906148   9.2293745
  16.0282272  33.2198212   9.5383802  15.7638008  33.8648535   9.1791699
  26.4857727  32.5772384   4.0158763  27.0775567  33.2169634   4.0476961
  26.9216721  31.8795420   4.3050830  26.6376158  32.5690734   4.0639596
  18.3151117  36.9989756   4.6416657  17.8076208  37.5525603   5.0857288
  18.0177763  37.0598046   3.8235432  18.1956002  37.0896067   4.5865114
  17.5593602  41.9314314   1.5473664  17.3359256  41.1733143   1.9157690
  17.0703445  41.9612335   0.8254104  17.4537051  41.8236539   1.4950405
  19.6164591  36.0996046   9.0985598  19.5760446  35.4545723   8.5130754
  20.4287910  36.0432664   9.4111010  19.7307745  35.9955013   9.0582547
  19.1811370  27.6517228   8.0937611  19.7382801  27.4231037   7.4616076
  18.8572435  28.4122893   7.8172823  19.2157781  27.7301064   7.9594108
  16.8994488  30.7384881   9.0589618  17.6505815  31.0536558   9.3729172
  17.0917064  30.5364052   8.2323540  17.0385902  30.7552263   8.9833014
  23.5372449  34.2959637   2.6426749  23.9627520  33.7734058   2.0897174
  23.1729369  34.8940474   2.1215372  23.5459051  34.3069864   2.4835759
  13.1726529  42.5923854   1.4024095  13.4873087  43.4060242   1.4101876
  13.5819942  42.2074073   2.0706254  13.2794627  42.6552556   1.5028186
  22.2128033  39.6195214  11.1519979  22.3224998  38.8303775  11.5076726
  22.5418929  39.5301150  10.3494317  22.2780439  39.4901067  11.0862369
  20.7624994  37.8011835   5.7355599  20.2145940  37.1769719   5.4675665
  21.2238023  37.9906107   5.0199679  20.7492204  37.7370885   5.5906030
  20.3283321  38.8062908   2.2664941  21.1481695  38.6625874   2.5281236
  20.0477398  39.4309107   2.8081378  20.4080064  38.8773260   2.3852880
  36.7996971  46.4627759  -4.7692183  36.7690976  47.3172396  -4.5973914
  37.3978320  46.1623052  -4.2106040  36.8834129  46.5444256  -4.6617381
  29.9996656  45.5503410  -0.0139253  29.1434552  45.7111909   0.0369864
  30.0464310  44.6795474   0.0065808  29.8795767  45.4454212  -0.0033187
  33.3090373  51.8189936   9.5921203  34.0157140  51.3241967   9.7208138
  33.4978308  52.2599017   8.8623861  33.4418278  51.8108286   9.5030249
  32.8448477  47.6095454   2.6292399  33.3904437  48.2880541   2.6886369
  32.7865353  47.4682915   1.7693980  32.9164391  47.6887456   2.5104460
  25.9622552  55.0984520  -1.9839249  26.0632915  54.2884874  -1.6742121
  25.3664297  55.0041467  -2.6139570  25.8895091  54.9649548  -2.0313010
  25.8023292  60.0162110  -0.5824393  26.4460747  60.4575274  -0.1928234
  26.1279547  59.2115536  -0.6694134  25.9455120  59.9627304  -0.5378915
  21.4577684  43.2890538   0.5397393  20.8382715  42.6983185   0.3707407
  21.3561547  43.8801973  -0.0938284  21.3515359  43.2894620   0.4202382
  28.5545579  45.0290079  -5.1270144  29.2525744  45.2078207  -4.6348681
  28.8697912  44.5060419  -5.7499755  28.7040916  44.9783851  -5.1468134
  21.1846817  46.8342819   2.7840962  21.0605514  47.4205265   3.4190781
  21.8365101  46.3403015   3.0853237  21.2620466  46.8481624   2.9226891
  28.7433515  51.4160524  -5.1390353  29.1827150  50.8077625  -4.6935580
  28.5938178  51.0367898  -5.9104888  28.7854980  51.2698995  -5.1871185
  26.2105158  50.0104536   2.0628473  26.8554160  49.5176979   1.7439421
  26.4506935  50.1529323   2.8894551  26.3415743  49.9581978   2.1378006
  28.7491249  52.8559442   1.7135365  29.0314492  52.0610848   1.4922121
  29.4777409  53.3340030   1.7340426  28.8980813  52.8094039   1.6838381
  26.7272443  40.3982476  -1.0448870  26.3975773  40.8493620  -1.7145171
  26.0517445  40.3198639  -0.4975863  26.5782879  40.4533611  -1.0625646
  33.9348851  36.3867999  -2.7999259  33.6202292  37.0771477  -2.3678837
  33.4175792  36.3312781  -3.5013758  33.8113321  36.4802887  -2.8402310
  38.7309337  51.9618804  -1.3128804  37.9007040  52.1729448  -1.1495387
  38.6818590  51.1355859  -1.5886520  38.6016073  51.8708411  -1.3291438
  26.7919075  54.7922658   1.5219106  26.2746017  54.4330073   0.9180414
  27.4893466  54.2684833   1.5325172  26.8184656  54.6620346   1.4349364
  30.4482667  55.2417473   7.4835279  30.5366013  55.0543613   8.3313489
  30.8772379  54.5954902   7.0840125  30.5244769  55.1180480   7.5507030
  28.0153127  54.5248632   6.4652941  27.4523961  54.1121242   6.9892602
  28.7774150  54.4501538   6.8846084  28.0447575  54.4526033   6.6045941
  23.5749118  56.5146654  -0.9310429  24.2769697  55.9998643  -0.8737672
  23.4946601  56.8420805  -0.1263554  23.6672879  56.4860880  -0.8037637
  38.2263296  44.6089205   2.4821617  37.3891717  44.6791392   2.7169212
  38.1951527  44.6113700   1.6095920  38.0981578  44.6199432   2.3881165
  24.6228025  46.7522241   8.1969986  24.7948528  46.6428135   9.0455268
  25.1597382  47.3976646   7.9601178  24.7273029  46.8314242   8.2875083
  22.8999894  52.7053006  -1.4224821  23.7388793  52.9375938  -1.3751059
  22.9311663  51.8357317  -1.4917786  23.0281611  52.6109952  -1.4260176
  23.5252597  53.1253881   2.8788485  24.0650822  52.9825012   3.5491857
  22.8422543  53.5250632   3.2472511  23.5044750  53.1633552   3.0322906
  32.9493481  48.8044881  -1.9266491  33.7050996  49.2376396  -1.8877582
  33.0555806  48.1549651  -1.3531855  33.0763652  48.7722365  -1.8368465
  35.9873653  52.6318159  -1.1764088  35.5508884  52.6354901  -0.4205117
  35.6536568  53.3123658  -1.6084511  35.8736273  52.7330614  -1.1283256
  30.5602726  54.6726492  10.1479062  31.3443143  54.7857339  10.5134804
  30.3599321  53.8467629  10.3437748  30.6468752  54.5673211  10.2313448
  18.9289742  49.3454172   3.0322906  18.6628157  48.5293288   3.1913896
  18.9428306  49.3907327   2.1618422  18.8914464  49.2311076   2.9276388
  35.9071135  39.6731987   1.0665340  36.5497044  39.7430091   1.6527255
  36.1594156  39.0061209   0.5644882  36.0393268  39.5858335   1.0792619
  23.6788348  42.8832550   5.6789914  22.9860145  42.4129530   5.9250645
  24.2948675  42.6570854   6.2531621  23.6672878  42.7799682   5.7999066
  30.7173120  56.5836594   3.7945518  29.9188365  56.3436094   4.0519386
  31.1659131  56.6350986   4.5412565  30.6647731  56.5558985   3.9430442
  39.1217999  49.3499079  -2.2844451  39.7834433  48.7889747  -2.3848542
  38.4809411  48.8551109  -1.9591760  39.1246866  49.1935488  -2.2512111
  19.3383155  50.1312951   0.3134650  19.1558729  50.1059837  -0.5393057
  20.0732824  50.6011889   0.3523559  19.4197219  50.1974313   0.1932569
  35.4082829  50.3664461  -2.5432462  35.6438419  50.5109660  -3.3705611
  35.5572393  51.1306869  -2.1500948  35.4648633  50.5003515  -2.6068858
  22.4028907  46.8497954   6.8216759  23.1268879  46.8350985   7.3081654
  22.5045043  47.5593309   6.3238727  22.5247116  46.9522657   6.8195546
  29.7773856  50.3297038  11.6865706  28.9846837  50.6440550  11.8718326
  29.8922783  50.5448507  10.8486491  29.6769267  50.4080875  11.5904041
  32.4505175  47.0531030  -4.0239278  32.5452030  47.7920324  -3.5699653
  31.8264019  46.6248505  -3.5904714  32.3714205  47.0992350  -3.8931131
  30.7057649  50.2317242   6.6251003  31.2796511  49.5944486   6.7799567
  30.6272453  50.2321325   5.7560660  30.7790884  50.1382354   6.5197414
  19.3054066  47.0106452   0.4633717  19.8827568  46.8742902   1.1025962
  18.6068127  46.5542236   0.7179301  19.2875087  46.9228718   0.5956007
  26.0621368  48.6640507  -1.3227800  25.8040612  47.8312242  -1.3496500
  26.1169851  48.8898120  -2.1635299  26.0321146  48.5738279  -1.4507663
  31.1422418  40.7668958  -1.2223707  30.4378745  40.2778144  -1.0639788
  31.1907392  40.7791432  -2.0935263  31.0452470  40.6958606  -1.3284367
  25.0356080  46.2178270  -0.8362905  24.4605671  46.3770438  -0.1998944
  24.6591756  45.5813679  -1.2994455  24.8958892  46.1476083  -0.8108347
  28.7029369  44.6901619   4.0229473  28.3143801  44.2655837   3.3681665
  28.0384067  44.9383769   4.5306500  28.5476296  44.6640340   4.0017341
  38.3452638  44.4476624  -3.2022697  38.0889203  43.6356565  -3.3924814
  39.1881952  44.4554191  -3.4292509  38.4318663  44.3288621  -3.2637880
  32.5255730  38.3876248   1.5353458  32.9066242  37.7054419   1.9221332
  31.7219014  38.0985850   1.3529122  32.4632192  38.2443296   1.5657513
  36.0277797  51.6026220   6.6335856  35.7916434  50.7714285   6.5147917
  36.6721026  51.5511827   7.2190700  36.0872468  51.4723908   6.7021750
  25.6776215  52.3921741  -2.6521408  26.3150162  52.1533489  -2.1069614
  26.1031287  52.5958900  -3.3868247  25.8352381  52.3872751  -2.6804250
  20.3688857  54.6310078   1.2312896  20.4093003  54.9024929   0.4032676
  20.9283382  55.1551986   1.6470684  20.4572203  54.7485833   1.1704784
  26.4847571  40.8930446  11.4016066  26.1701012  41.6630009  11.1385629
  26.1637503  40.3300702  10.8168293  26.3906490  40.9240715  11.2757416
  37.0514218  51.3870669   2.6964150  36.7460035  52.1198725   3.0577466
  36.3320433  50.9808598   2.4156937  36.9001560  51.4352402   2.7077288
  28.0597687  52.8694164  -0.9727621  28.1336695  52.7069336  -0.1185771
  28.8767193  53.0584353  -1.2167140  28.1914046  52.8730906  -0.8829596
  42.7516010  48.0263669   2.0232495  42.6840510  48.0459628   1.1535081
  42.7371672  48.8693997   2.2488165  42.7394766  48.1537404   1.9284972
  33.1612356  39.4298827   5.3473584  33.9065948  39.2408637   4.9337010
  32.7449661  39.9557065   4.7887440  33.2097330  39.4800972   5.2038157
  40.5374627  46.8008055   0.2979089  41.0882549  46.1676125   0.5376181
  40.5218742  47.3323448   0.9894593  40.6159823  46.7857004   0.4357947
  27.1897018  50.6346653   4.8438983  26.6908712  51.3462420   4.9223871
  27.9997242  50.9547319   4.8057145  27.2353125  50.7873501   4.8495551
  23.4525136  49.8969606  -0.9098297  23.1638384  49.2707077  -0.3752569
  24.3208484  49.8389893  -0.8433616  23.5385387  49.7957150  -0.8207342
  34.2403033  45.0404389  -0.5916315  33.8967799  44.3194724  -0.2409065
  34.3396076  44.8318240  -1.4337956  34.2045076  44.9028592  -0.6644635
  26.1164076  43.4927697  10.1401281  25.3063852  43.7985477  10.0291123
  26.5938763  44.2133280  10.2553865  26.0667555  43.6442298  10.1408352
  24.9755636  52.7073418   0.3884184  24.4536389  52.8473710   1.0736049
  25.3629656  51.9484082   0.5786301  24.9559336  52.6158942   0.5185260
  26.4021961  49.7377437  -4.2134325  26.2064744  50.3452172  -4.8074022
  26.6256307  49.0445381  -4.6942651  26.4056602  49.7254963  -4.3718244
  24.8000491  46.6232175  -4.0953457  25.5223143  46.7873333  -4.5549651
  24.3208484  47.3441840  -4.2014117  24.8364222  46.7530405  -4.1787843
  32.7593999  42.9595974   1.2843228  31.9205099  42.9857253   1.0481491
  32.8298366  43.6066709   1.8648575  32.6462392  43.0592100   1.3352345
  22.4508108  49.0290248   5.0100683  22.9629205  49.3074501   4.3609443
  22.1644450  49.7679542   5.3763496  22.4842971  49.1792601   4.9690561
  31.2063277  39.8581351  -3.9829156  31.9089630  39.6589099  -4.4609198
  30.9407466  39.0857293  -3.6760312  31.2709909  39.7144317  -4.0083714
  36.6351523  48.1663961  -1.4295530  36.5485497  48.3219387  -0.5760751
  36.1802003  48.8102036  -1.8036125  36.5554779  48.2839716  -1.3588423
  25.9691833  41.1216636   5.0701725  25.7775030  41.1371771   5.9201148
  26.8190429  41.3180310   5.0468380  26.0667555  41.1530987   5.1925020
  20.3538746  43.6507618   3.0485541  20.2124238  42.7991558   3.1730049
  20.6379310  43.6936278   2.2247747  20.3746592  43.5307368   2.9453165
  30.5077339  45.4874708  -2.8069971  30.2612053  45.4070459  -1.9733182
  30.8362462  44.7028176  -3.0007443  30.5198582  45.3600973  -2.7122447
  34.4025387  52.1958067   0.9816811  34.2639747  52.8939113   1.4865553
  33.6225385  52.0406724   0.6252992  34.2668614  52.2758234   1.0043085
  32.7403473  48.4954442   7.2339192  32.7351511  47.6234259   7.2381619
  33.4464466  48.6942612   6.7608648  32.8448477  48.3958317   7.1646228
  26.4674366  48.2231426   6.6053013  26.6117742  48.8032635   5.9696123
  26.8150014  48.6007723   7.3102867  26.5401827  48.3652130   6.6152008
  28.6394283  47.4221595   4.3878144  27.8917597  47.6152609   3.9826422
  28.7935808  46.5966814   4.1502265  28.5516711  47.3286706   4.2923550
  25.5402121  56.4134198   3.4714039  25.6891685  55.8537114   2.8187444
  26.3202123  56.4926200   3.8546558  25.6776215  56.3419764   3.4310989
  28.0655422  56.5848841   4.7498530  27.9899093  55.9157652   5.3049318
  27.9945281  57.2866629   5.2639196  28.0436028  56.5893748   4.9075378
  28.8796060  41.3172145   5.2773548  29.3368674  42.0496120   5.4046340
  28.9552389  40.8938611   6.0360804  28.9587030  41.3629384   5.4074624
  21.1229052  41.5637965   6.3662992  20.5871241  40.9518323   6.6823759
  21.1846816  42.1386101   7.0196658  21.0524684  41.5584893   6.5098418
  33.3523386  34.4962021  -0.8532609  33.4706954  34.9538484  -1.5865306
  33.1785562  33.6907282  -1.1396392  33.3442557  34.4455793  -1.0031676
  26.7578438  43.3074249   2.1215372  25.9674513  43.1265709   2.4432708
  27.1539061  42.5301202   2.1045666  26.6995314  43.1661710   2.1667920
  32.1422125  50.9416680  -0.1525182  31.4667126  50.7101912   0.3488205
  32.1514501  50.3337862  -0.7783077  32.0440629  50.8175605  -0.1709030
  29.2716268  45.7834509   6.6038871  29.2075410  46.6444465   6.4759008
  29.4113456  45.4666502   5.8034422  29.2831739  45.8634675   6.4667084
  27.9535362  48.4766648   0.7455074  27.5297611  48.6771147   0.0094092
  27.7780218  47.6295496   0.8579374  27.8646243  48.3815429   0.6528764
  27.4547056  59.9917161   3.2076531  27.9442986  59.2927950   3.0252196
  26.8831288  59.6941031   3.7952588  27.4431586  59.8443384   3.2677572
  23.2417807  48.9718699  -3.8216954  23.3982427  48.9065502  -2.9660962
  23.5818400  49.7467252  -4.0338274  23.3151042  49.0767897  -3.7262360
  29.7796952  48.3476583  -4.9523591  30.3212497  47.8446964  -4.4884970
  30.0943511  48.2941778  -5.7634105  29.9061349  48.2656004  -5.0039778
  33.6514059  52.5579230  12.1603322  34.4648925  52.2864379  12.3208454
  33.4909026  52.2586770  11.3563518  33.7484008  52.4734156  12.0648728
  30.9286221  43.2412887   5.0998710  31.1428191  42.6023802   4.5462064
  30.3120121  43.6858711   4.6706572  30.8691551  43.2123031   4.9549141
  19.8152069  46.1553650  -3.5056187  20.1951034  46.5738195  -4.1695919
  19.2407434  46.7367105  -3.1987343  19.7863394  46.3031509  -3.5579446
  33.0925309  44.8501953   6.0382017  32.2801991  44.5427843   6.1195190
  33.5515244  44.3700953   6.6024729  33.0405694  44.7338445   6.1336611
  30.3200950  36.3512823   0.0886053  29.4494508  36.3251544   0.0419362
  30.5741291  36.1790015  -0.7288102  30.2294510  36.3222967  -0.0393811
  30.1878817  46.2562024  10.8210719  30.6578448  46.8804140  11.2078593
  30.2340697  45.5879000  11.3803934  30.2646693  46.2496704  10.9610791
  27.3450090  38.3619051   1.5459523  26.8288579  37.6699243   1.6711102
  26.7844019  39.0289829   1.4922122  27.1856604  38.3582309   1.5565589
  29.4142324  38.9012011   3.3752376  29.0274077  38.9261043   4.1565906
  28.9275261  38.3353690   2.9226892  29.2854833  38.8207762   3.4240279
  33.6635303  53.6185520   7.4326162  34.3015024  53.1245716   7.0988618
  33.0209395  53.5462921   6.8478389  33.6629530  53.5344529   7.2968517
  35.3892303  45.4674666   1.9992078  34.9619912  45.3801015   1.2440177
  34.7518356  45.5752442   2.5846922  35.2321911  45.4707326   1.9737519
  29.0799466  35.7878997   5.6662636  29.7092584  36.3239297   5.3883706
  29.2485328  35.6956356   6.5176201  29.1977260  35.8540359   5.7511164
  28.8813381  40.5750192   7.9389047  29.7086810  40.3035341   7.9947662
  28.9021227  41.3711033   8.2952865  29.0066231  40.6529946   8.0004230
  33.7189560  54.3105329   4.0731519  34.5081938  53.9594393   4.1933601
  33.8933158  55.1241717   3.8108153  33.8609842  54.3791186   4.0519387
  23.4582870  47.7214055   1.1259308  22.6170877  47.6217929   1.3338202
  23.6672878  48.4909535   1.4773628  23.3647563  47.8206098   1.2086623
  20.9358437  45.3433591  -1.0455942  20.5415135  45.4176603  -1.8205832
  20.3798554  45.7291538  -0.4947580  20.7961250  45.4115366  -1.0788282
  32.5723384  38.3214885  -1.3652063  32.7772978  38.2537193  -0.5195065
  32.2449808  39.1273707  -1.4330885  32.5538632  38.4300826  -1.2492407
  27.2699535  45.6495454   0.3756905  26.9662673  45.0951442   0.9767313
  26.5678956  45.8287664  -0.1115060  27.1215745  45.5940236   0.3926611
  25.3317886  52.8645174   5.0829003  25.2238241  52.8747237   5.9491061
  25.5413668  53.6899955   4.8933957  25.3467997  52.9886249   5.1833095
  35.8257072  38.8746650  -1.8849297  35.2131385  39.3617052  -1.4995565
  35.9221247  38.1990141  -1.3411646  35.7494969  38.8464958  -1.7470439
  23.3491678  50.1157817   2.5450941  22.7579612  50.7567315   2.5153956
  24.1112702  50.5395434   2.5182240  23.3739939  50.2733655   2.5366088
  23.7452301  41.2759815   3.2118958  24.2053783  41.3498744   3.9494082
  23.7908408  42.0741069   2.8618780  23.8202856  41.4053962   3.2691715
  25.3935651  41.9426509   7.7790985  25.0021216  41.2959857   8.2146763
  25.5621514  42.5337945   8.3985241  25.3606561  41.9340777   7.9353691
  39.4682100  49.9463586   3.5428219  39.5265224  50.3950235   4.2888195
  38.8348567  50.3562399   3.1058299  39.3833395  50.0737321   3.5880767
  33.1081195  55.5667128  -0.0217035  32.9100883  56.0557943  -0.7160823
  32.4868906  55.7708370   0.5567099  32.9868759  55.6683667  -0.0393812
  27.1689173  47.3352025  -5.6806791  27.9131218  47.7226302  -5.4423841
  27.3149869  46.4909451  -5.5166303  27.2999758  47.2682498  -5.6212821
  29.0868748  39.1302284  -0.6474929  28.2404793  39.3025092  -0.7733579
  29.0839881  38.3251628  -0.3109101  28.9615898  39.0363313  -0.6163802
  30.1567049  42.9077499   0.2187129  29.6827003  42.3819261   0.7292440
  30.5285185  42.3606971  -0.3498010  30.1416938  42.7493495   0.2102276
  20.5340079  44.9049005   5.5870675  21.3965692  44.8044714   5.5008004
  20.2031862  44.3243715   5.0256247  20.6125275  44.8040632   5.4916080
  36.4203779  47.9679874   1.6293909  36.1802002  47.1286289   1.6336336
  36.8995786  48.0480041   2.3534683  36.4555963  47.8561274   1.7368712
  38.4208966  44.7481331  -0.4176832  38.1818736  44.7077166  -1.2556047
  38.5842868  45.5952483  -0.2911110  38.4099270  44.8673416  -0.5223350
  35.0254996  49.1331281   5.5128214  35.7489195  48.6803807   5.3339233
  34.7604959  49.4135946   4.7300541  35.0936270  49.1082249   5.3706929
  23.8941865  43.7291454   2.2481093  23.2694935  43.7409846   1.6407045
  23.5587460  44.2051629   2.8972333  23.7527357  43.8009971   2.2537661
  20.6067540  51.7891914   3.6884857  20.0767465  51.0984353   3.7379832
  20.8792634  51.7802100   2.8597566  20.5692263  51.6859046   3.5732273
  30.8073786  49.2315159   3.6623229  30.1930779  48.6873209   3.9571864
  31.3241071  48.7179395   3.1829045  30.7929448  49.0751568   3.6347457
  30.0470083  50.3019429   1.3967527  29.6197691  49.6769148   0.9632963
  30.0395027  50.0194351   2.2226534  29.9829224  50.1672210   1.4547355
  23.1632610  45.3384602   4.4655961  23.3226097  44.5827926   4.8707683
  22.9825504  45.8875542   5.1196699  23.1597969  45.3078416   4.6218667
  31.1052913  37.5045838   5.0206751  30.6093474  37.7009512   4.3298317
  31.8621975  37.9038506   4.8495552  31.1439738  37.5923571   4.8926887
  28.3755793  41.1788184   1.6110061  28.3998280  40.6448296   0.9222841
  28.6267266  40.6705492   2.2735652  28.4165711  41.0249087   1.6074706
  24.6557115  39.9059002   0.9915806  24.6955487  40.4068208   1.7050513
  23.8306780  39.9969395   0.7221729  24.5396641  39.9940818   1.0566344
  26.8386728  49.4719742   9.0936100  25.9882358  49.6091456   9.2293745
  27.0014856  48.7383520   9.5383802  26.7370591  49.3833843   9.1791699
  26.0771478  46.4219512   3.2889705  25.2463408  46.5893330   3.0824953
  26.0222996  46.0455462   4.0738590  25.9460893  46.3909243   3.3738233
  23.8855262  39.9128405   8.9246115  24.5107965  39.3690537   9.1975548
  23.4305742  39.4323322   8.3553906  23.9103522  39.7617886   8.8807709
  37.4590310  48.0957692   4.0158763  38.0508151  48.7354942   4.0476961
  37.8949305  47.3980728   4.3050830  37.6108742  48.0876042   4.0639596
  29.2883700  52.5175064   4.6416657  28.7808791  53.0710911   5.0857288
  28.9910346  52.5783354   3.8235432  29.1688585  52.6081375   4.5865114
  31.4545882  40.8828384   3.4841320  31.8800954  40.4300910   2.8724847
  30.8402876  40.3288454   3.7606108  31.4274528  40.7342360   3.4346345
  34.4839452  45.3102910  -3.6838094  33.8130642  45.8532612  -3.8125029
  35.1779202  45.7797765  -3.9256399  34.4868319  45.4601181  -3.7382566
  28.5326186  57.4499622   1.5473664  28.3091840  56.6918451   1.9157690
  28.0436029  57.4797643   0.8254104  28.4269635  57.3421847   1.4950405
  34.6467579  41.7658794  -0.7747721  34.9995189  41.3388517  -0.1001922
  33.7882381  41.6809637  -0.6446645  34.5717024  41.6903534  -0.6552711
  23.3451264  44.3966313  -2.7164874  22.6263253  44.8130446  -2.4492011
  23.7163627  44.9620552  -3.2673236  23.2943196  44.5415595  -2.7582067
  32.6450845  45.0294162   3.1737121  32.6248772  44.8477458   4.0271900
  32.6930046  45.9006181   3.1496705  32.6485486  45.1310701   3.2960416
  30.5897175  51.6181354   9.0985598  30.5493030  50.9731031   8.5130754
  31.4020493  51.5617972   9.4111010  30.7040328  51.5140321   9.0582547
  27.1804642  57.6700080  -0.9989251  26.7665041  57.0074210  -1.3885410
  27.8652017  57.8177939  -1.5193557  27.2203014  57.5940738  -1.1332754
  30.5469937  56.8290166  -0.2465635  30.1486220  56.9392436  -1.0144814
  29.9321156  57.0372232   0.3360925  30.3968826  56.8763734  -0.2734335
  36.0791639  36.8877206   0.1536592  35.5722504  36.1806345   0.0857769
  36.8759073  36.5570394   0.2837668  36.1218879  36.7350357   0.1635586
  31.9955655  43.3943818  -3.9489745  31.7669348  43.4176519  -4.7911387
  32.2553731  42.5701285  -3.8294734  32.0001843  43.2759898  -4.0564547
  26.2774884  45.2478291   5.6535355  25.7653787  44.6399474   6.0120387
  26.1054380  45.9634883   6.1209331  26.1764521  45.2641590   5.7751579
  21.1240598  43.6915866   8.3037717  20.9543189  44.3517241   7.7585924
  20.6806548  43.9022427   9.0250206  21.0339932  43.8201848   8.3299347
  25.0500418  41.9320364  -2.6535549  25.5257784  42.2937444  -3.2885368
  24.5489017  42.5876832  -2.3735406  25.0465777  42.0814553  -2.7058808
  30.1543954  43.1702536   8.0937611  30.7115384  42.9416345   7.4616076
  29.8305019  43.9308201   7.8172823  30.1890364  43.2486372   7.9594108
  18.0242663  46.5962732   3.5626207  17.4769382  45.9263377   3.6807075
  18.8135041  46.2292580   3.6269674  18.0594847  46.4427718   3.5894908
  27.8727071  46.2570189   9.0589618  28.6238398  46.5721866   9.3729172
  28.0649648  46.0549360   8.2323540  28.0118485  46.2737571   8.9833014
  34.7212361  42.3843755  -3.6986586  34.7206588  42.2292412  -2.8402310
  34.5168541  43.2306742  -3.7545201  34.6912139  42.4864376  -3.5798647
  16.7829632  45.8083540   0.7172230  16.6051393  45.3560149   1.4427146
  16.4948654  46.6109701   0.9010708  16.7142585  45.8606097   0.8515733
  32.4453213  47.0641257  -0.0450380  32.9406879  46.3464252  -0.0846359
  31.6352989  46.7612055  -0.1595893  32.3997107  46.9138903  -0.0676654
  34.5105032  49.8144944   2.6426749  34.9360104  49.2919366   2.0897174
  34.1461952  50.4125782   2.1215372  34.5191635  49.8255171   2.4835759
  24.1459112  58.1109162   1.4024095  24.4605671  58.9245550   1.4101876
  24.5552525  57.7259381   2.0706254  24.2527210  58.1737864   1.5028186
  31.0983632  53.5279209  -1.0272093  31.5694810  54.2419471  -0.8582108
  31.4343810  52.9277959  -0.4912224  31.2178747  53.5450673  -0.9239717
  33.1860616  55.1380522  11.1519979  33.2957582  54.3489083  11.5076726
  33.5151513  55.0486458  10.3494317  33.2513022  55.0086375  11.0862369
  28.0153127  38.3006679   5.9286001  28.1481032  37.5037673   6.2566977
  28.3998279  38.8273082   6.5084277  28.0909456  38.2606596   6.0629504
  31.7357578  53.3197143   5.7355599  31.1878524  52.6955027   5.4675665
  32.1970607  53.5091415   5.0199679  31.7224788  53.2556193   5.5906030
  31.0885482  35.2237005   2.5267095  30.2831446  35.1134735   2.8434933
  30.9592217  35.3249461   1.6696961  30.9505615  35.2220675   2.4475135
  34.5451442  41.3882497   3.1206792  33.9614431  41.8891704   2.7084359
  34.8655736  40.8812054   2.4871115  34.5064618  41.3874332   2.9665299
  25.6741573  38.2965854   4.1763895  26.2185986  37.9556981   4.7668237
  25.7278509  39.1551316   4.3185180  25.7630693  38.3721114   4.2845769
  21.4872132  52.0582270   1.0502703  22.0916990  52.0178105   0.4216524
  21.2799445  52.9053422   1.0806759  21.5461030  52.1770273   0.9618820
  31.3015904  54.3248216   2.2664941  32.1214278  54.1811182   2.5281236
  31.0209982  54.9494414   2.8081378  31.3812648  54.3958568   2.3852880
  32.1579400  62.3528127   2.7840962  32.0338097  62.9390573   3.4190781
  32.8097685  61.8588323   3.0853237  32.2353050  62.3666932   2.9226891
  35.5960608  62.2707548   8.1969986  35.7681112  62.1613443   9.0455268
  36.1329966  62.9161954   7.9601178  35.7005612  62.3499550   8.2875083
  41.5335310  70.1911799  10.1479062  42.3175726  70.3042647  10.5134804
  41.3331904  69.3652937  10.3437748  41.6201335  70.0858519  10.2313448
  34.6520932  58.4017858   5.6789914  33.9592728  57.9314838   5.9250645
  35.2681259  58.1756162   6.2531621  34.6405462  58.2984990   5.7999066
  33.3761491  62.3683262   6.8216759  34.1001463  62.3536292   7.3081654
  33.4777627  63.0778617   6.3238727  33.4979700  62.4707965   6.8195546
  40.7506440  65.8482346  11.6865706  39.9579421  66.1625858  11.8718326
  40.8655367  66.0633815  10.8486491  40.6501850  65.9266183  11.5904041
  39.6761952  60.2086927   4.0229473  39.2876385  59.7841145   3.3681665
  39.0116651  60.4569077   4.5306500  39.5208880  60.1825648   4.0017341
  43.4988314  53.9061556   1.5353458  43.8798825  53.2239727   1.9221332
  42.6951598  53.6171158   1.3529122  43.4364775  53.7628604   1.5657513
  37.4580154  56.4115754  11.4016066  37.1433595  57.1815317  11.1385629
  37.1370087  55.8486010  10.8168293  37.3639073  56.4426023  11.2757416
  44.1344940  54.9484135   5.3473584  44.8798532  54.7593945   4.9337010
  43.7182244  55.4742373   4.7887440  44.1829914  54.9986280   5.2038157
  37.0896660  59.0113005  10.1401281  36.2796435  59.3170785  10.0291123
  37.5671346  59.7318587  10.2553865  37.0400138  59.1627606  10.1408352
  33.4240691  64.5475555   5.0100683  33.9361788  64.8259809   4.3609443
  33.1377034  65.2864850   5.3763496  33.4575555  64.6977909   4.9690561
  36.9424417  56.6401944   5.0701725  36.7507614  56.6557078   5.9201148
  37.7923013  56.8365618   5.0468380  37.0400139  56.6716295   5.1925020
  31.3271330  59.1692926   3.0485541  31.1856822  58.3176866   3.1730049
  31.6111893  59.2121586   2.2247747  31.3479176  59.0492676   2.9453165
  39.8528644  56.8357453   5.2773548  40.3101258  57.5681428   5.4046340
  39.9284973  56.4123919   6.0360804  39.9319614  56.8814691   5.4074624
  32.0961635  57.0823273   6.3662992  31.5603825  56.4703631   6.6823759
  32.1579400  57.6571409   7.0196658  32.0257268  57.0770201   6.5098418
  37.7311022  58.8259557   2.1215372  36.9407097  58.6451017   2.4432708
  38.1271645  58.0486510   2.1045666  37.6727898  58.6847018   2.1667920
  40.2448852  61.3019816   6.6038871  40.1807993  62.1629773   6.4759008
  40.3846040  60.9851810   5.8034422  40.2564322  61.3819983   6.4667084
  44.6246643  68.0764538  12.1603322  45.4381508  67.8049687  12.3208454
  44.4641609  67.7772078  11.3563518  44.7216591  67.9919464  12.0648728
  41.9018805  58.7598195   5.0998710  42.1160774  58.1209110   4.5462064
  41.2852704  59.2044019   4.6706572  41.8424134  58.7308339   4.9549141
  44.0657893  60.3687260   6.0382017  43.2534575  60.0613151   6.1195190
  44.5247828  59.8886261   6.6024729  44.0138278  60.2523753   6.1336611
  41.1611400  61.7747332  10.8210719  41.6311032  62.3989448  11.2078593
  41.2073281  61.1064307  11.3803934  41.2379276  61.7682012  10.9610791
  38.3182674  53.8804359   1.5459523  37.8021163  53.1884551   1.6711102
  37.7576603  54.5475136   1.4922122  38.1589187  53.8767617   1.5565589
  40.3874908  54.4197319   3.3752376  40.0006661  54.4446351   4.1565906
  39.9007845  53.8538998   2.9226892  40.2587416  54.3393070   3.4240279
  40.0532049  51.3064305   5.6662636  40.6825167  51.8424605   5.3883706
  40.2217912  51.2141664   6.5176201  40.1709844  51.3725667   5.7511164
  39.8545964  56.0935500   7.9389047  40.6819393  55.8220649   7.9947662
  39.8753810  56.8896341   8.2952865  39.9798814  56.1715254   8.0004230
  34.7184885  56.7945122   3.2118958  35.1786366  56.8684052   3.9494082
  34.7640991  57.5926377   2.8618780  34.7935440  56.9239270   3.2691715
  36.3668234  57.4611817   7.7790985  35.9753800  56.8145164   8.2146763
  36.5354097  58.0523253   8.3985241  36.3339145  57.4526085   7.9353691
  31.5072662  60.4234313   5.5870675  32.3698275  60.3230022   5.5008004
  31.1764445  59.8429022   5.0256247  31.5857859  60.3225940   5.4916080
  34.8674448  59.2476762   2.2481093  34.2427519  59.2595154   1.6407045
  34.5320043  59.7236937   2.8972333  34.7259940  59.3195279   2.2537661
  34.1365194  60.8569910   4.4655961  34.2958680  60.1013234   4.8707683
  33.9558087  61.4060849   5.1196699  34.1330553  60.8263724   4.6218667
  42.0785497  53.0231146   5.0206751  41.5826058  53.2194820   4.3298317
  42.8354559  53.4223814   4.8495552  42.1172321  53.1108879   4.8926887
  35.6289699  55.4244310   0.9915806  35.6688070  55.9253516   1.7050513
  34.8039363  55.5154703   0.7221729  35.5129225  55.5126126   1.0566344
  37.8119311  64.9905050   9.0936100  36.9614942  65.1276764   9.2293745
  37.9747439  64.2568828   9.5383802  37.7103175  64.9019151   9.1791699
  34.8587845  55.4313712   8.9246115  35.4840549  54.8875845   9.1975548
  34.4038325  54.9508630   8.3553906  34.8836106  55.2803194   8.8807709
  42.4278466  56.4013691   3.4841320  42.8533538  55.9486218   2.8724847
  41.8135459  55.8473762   3.7606108  42.4007111  56.2527668   3.4346345
  41.5629758  67.1366662   9.0985598  41.5225613  66.4916339   8.5130754
  42.3753077  67.0803280   9.4111010  41.6772912  67.0325629   9.0582547
  37.2507467  60.7663599   5.6535355  36.7386370  60.1584782   6.0120387
  37.0786963  61.4820191   6.1209331  37.1497104  60.7826898   5.7751579
  32.0973182  59.2101174   8.3037717  31.9275772  59.8702549   7.7585924
  31.6539132  59.4207735   9.0250206  32.0072516  59.3387156   8.3299347
  41.1276538  58.6887843   8.0937611  41.6847968  58.4601653   7.4616076
  40.8037603  59.4493509   7.8172823  41.1622948  58.7671680   7.9594108
  28.9975246  62.1148040   3.5626207  28.4501966  61.4448685   3.6807075
  29.7867625  61.7477888   3.6269674  29.0327430  61.9613026   3.5894908
  38.8459655  61.7755497   9.0589618  39.5970982  62.0907174   9.3729172
  39.0382231  61.5734668   8.2323540  38.9851069  61.7922879   8.9833014
  27.7562216  61.3268848   0.7172230  27.5783977  60.8745457   1.4427146
  27.4681238  62.1295009   0.9010708  27.6875169  61.3791405   0.8515733
  38.9885710  53.8191987   5.9286001  39.1213616  53.0222981   6.2566977
  39.3730863  54.3458390   6.5084277  39.0642039  53.7791904   6.0629504
  42.0618065  50.7422313   2.5267095  41.2564029  50.6320043   2.8434933
  41.9324801  50.8434769   1.6696961  41.9238198  50.7405983   2.4475135
  36.6474157  53.8151162   4.1763895  37.1918570  53.4742289   4.7668237
  36.7011093  54.6736624   4.3185180  36.7363276  53.8906422   4.2845769
  35.2911432  39.2085680  -4.8689967  35.4631936  39.0991574  -4.0204686
  35.8280790  39.8540085  -5.1058775  35.3956436  39.2877681  -4.7784870
  41.2286134  47.1289931  -2.9180891  42.0126550  47.2420778  -2.5525149
  41.0282728  46.3031068  -2.7222205  41.3152159  47.0236650  -2.8346505
  40.4457264  42.7860478  -1.3794247  39.6530245  43.1003989  -1.1941627
  40.5606191  43.0011946  -2.2173463  40.3452674  42.8644314  -1.4755912
  37.1530978  33.3493885  -1.6643887  36.8384419  34.1193448  -1.9274324
  36.8320911  32.7864141  -2.2491660  37.0589897  33.3804154  -1.7902537
  36.7847483  35.9491136  -2.9258672  35.9747259  36.2548916  -3.0368830
  37.2622170  36.6696719  -2.8106088  36.7350962  36.1005737  -2.9251601
  37.1357773  40.6794865  -6.4606941  37.2801149  41.2596074  -7.0963831
  37.4833422  41.0571162  -5.7557086  37.2085235  40.8215570  -6.4507946
  39.9399676  38.2397948  -6.4621082  39.8758817  39.1007904  -6.5900946
  40.0796864  37.9229941  -7.2625531  39.9515146  38.3198114  -6.5992869
  44.3197467  45.0142669  -0.9056632  45.1332332  44.7427818  -0.7451499
  44.1592433  44.7150209  -1.7096436  44.4167415  44.9297595  -1.0011226
  43.7608717  37.3065392  -7.0277936  42.9485399  36.9991282  -6.9464763
  44.2198651  36.8264392  -6.4635224  43.7089102  37.1901884  -6.9323342
  40.8562224  38.7125463  -2.2449234  41.3261856  39.3367579  -1.8581360
  40.9024105  38.0442439  -1.6856019  40.9330100  38.7060143  -2.1049162
  37.5070135  41.9283181  -3.9723853  36.6565766  42.0654895  -3.8366208
  37.6698263  41.1946959  -3.5276151  37.4053999  41.8397282  -3.8868254
  41.2580582  44.0744793  -3.9674355  41.2176437  43.4294470  -4.5529199
  42.0703901  44.0181411  -3.6548943  41.3723736  43.9703760  -4.0077406
  40.8227361  35.6265975  -4.9722342  41.3798792  35.3979784  -5.6043877
  40.4988427  36.3871640  -5.2487130  40.8573772  35.7049811  -5.1065845
  38.5410479  38.7133628  -4.0070335  39.2921806  39.0285305  -3.6930781
  38.7333055  38.5112799  -4.8336413  38.6801893  38.7301010  -4.0826939
  79.2067116  79.2067116  79.2067116 109.4712190 109.4712190 109.4712190
