default_name
 43954
  38.5189558  30.1199915  24.0648618  39.0087711  30.5617619  24.8297283
  38.2363489  30.8315985  23.4061894  39.0575927  29.3257312  23.7500278
  37.2262285  29.5385627  24.6060842  36.3850611  30.0018344  24.0904138
  37.1488469  28.0232486  24.4047981  37.0649855  27.8481505  23.3322277
  38.0875277  27.6051634  24.7683681  35.9671969  27.3433164  25.1311014
  36.2322954  27.3209090  26.1881357  35.1057846  27.9954345  24.9868341
  35.5305610  25.6171791  24.5713352  34.6132692  25.9702991  23.0640469
  35.2550871  26.5059146  22.3645580  34.2838105  25.0352073  22.6111000
  33.7444777  26.5839799  23.3021616  37.0934599  29.8281160  26.1248664
  35.9892919  30.0417229  26.6292564  37.9018461  32.2971224  27.6582183
  38.6854022  31.9024607  28.1585994  37.5848029  33.7176565  27.8679194
  37.7378049  33.9864791  28.9131103  38.5160679  34.6010416  26.9852568
  38.5509789  34.1963955  25.9737520  38.1306445  35.6201818  26.9552235
  39.7854973  34.6059344  27.5218181  40.3603758  35.1500762  26.9786567
  36.1688727  34.0724114  27.4678900  35.7504852  35.2310285  27.5644371
  35.4438903  33.0928278  26.9134015  35.7812210  32.1411282  26.9373834
  34.1435778  33.3527561  26.2936235  33.9813026  34.4274287  26.2108912
  34.0878122  32.7329053  24.8746379  34.8357757  33.2744455  24.2955144
  34.4061291  31.6981055  25.0009863  32.7259657  32.7680957  24.1238772
  32.8245742  32.1384043  23.2396453  31.9768716  32.3418226  24.7911467
  32.2974672  34.1579532  23.7075299  33.0830557  35.1059195  23.8939719
  31.1668206  34.2688159  23.1942272  33.0601883  32.6800544  27.1673635
  32.9684676  31.4178062  27.2305921  32.2904499  33.4797864  27.8858101
  32.4895892  34.4665420  27.9680071  31.1196135  32.9277291  28.6355461
  31.4649729  32.2138702  29.3833640  30.3488750  34.0591969  29.3519081
  30.0495886  34.7568216  28.5697017  29.4601671  33.6351924  29.8193677
  31.1822031  34.8052171  30.4145445  32.0450131  35.2687775  29.9362438
  30.3069892  35.9104912  31.0954554  29.4441711  35.4476134  31.5744001
  30.9004564  36.4341152  31.8449321  29.9661526  36.6203261  30.3417544
  31.7145967  33.8421679  31.4668608  32.3475939  33.0945491  30.9888648
  32.2982472  34.3943916  32.2034083  30.8796241  33.3471481  31.9627188
  30.1449726  32.1667493  27.7315379  29.8558529  32.6066286  26.6156593
  29.6490185  31.0309190  28.2455301  30.0781025  30.6255511  29.0650806
  28.5123910  30.3145883  27.6205842  28.6368105  30.2876331  26.5380444
  28.3729593  28.8547782  28.1416402  27.5843922  28.3551264  27.5789588
  29.7100820  28.0724331  27.9683346  30.4990749  28.5712618  28.5311487
  29.5871410  27.0550582  28.3397280  29.9803256  28.0431590  26.9127722
  27.9927024  28.8499288  29.5230483  27.9109012  27.9437511  29.8292360
  27.2111528  31.0621631  27.8713968  27.1509269  31.9307240  28.7651137
  26.1715567  30.7910116  27.0559271  26.0963697  30.0338304  25.7861399
  25.9306638  28.9765765  25.9931566  27.0244041  30.1529410  25.2269763
  24.9053401  30.6887463  25.0854177  24.4479914  30.0039827  24.3712539
  25.2090521  31.6002788  24.5706663  23.9574654  31.0049486  26.2404171
  23.3878190  30.1311463  26.5567580  23.2712866  31.8126253  25.9856298
  24.9001861  31.4538866  27.3734843  25.0582057  32.5288423  27.2863166
  24.3774617  31.1238818  28.7903040  23.8747045  32.0342222  29.4505801
  24.5886540  29.9019247  29.2968093  24.9983207  29.1754345  28.7271740
  24.1907857  29.5675714  30.6759858  23.1488598  29.8535378  30.8199046
  24.3344758  28.0804910  30.9808303  25.2949760  27.7510153  30.5846180
  24.3286560  27.9609593  32.0642408  23.2093277  27.2330623  30.3662546
  22.2754669  27.4678626  30.8770127  23.1410632  27.5445882  29.3239539
  23.4608091  25.7273028  30.4320299  24.3021847  25.2772350  31.2446105
  22.7716992  24.9782235  29.6768553  25.0047042  30.3478911  31.7126260
  24.4726970  30.8054927  32.7387245  26.3049911  30.4804293  31.4618122
  26.7548791  30.0545639  30.6641038  27.1261802  31.2355395  32.3947528
  26.9514450  30.8756092  33.4086645  28.6198717  31.0759924  32.0673765
  28.7319091  31.2495371  30.9971293  29.1515627  31.8517765  32.6183428
  29.2028097  29.7042494  32.4260497  29.3213800  29.6393733  33.5076379
  28.4978225  28.9429827  32.0920361  30.5620964  29.4758427  31.7476184
  30.9417587  30.2535542  30.8337549  31.2643728  28.5393523  32.1218959
  26.7055717  32.7140810  32.3222512  26.5972752  33.3602823  33.3553038
  26.4439591  33.2624147  31.1299396  26.4485078  32.7275471  30.2732043
  26.1135412  34.6872947  31.0571248  26.9310076  35.2386640  31.5217104
  25.8992756  35.2332499  29.6281413  25.0995943  34.6462175  29.1764754
  25.5777482  36.2702128  29.7252403  27.0969284  35.1690767  28.7745075
  27.8833907  35.7845374  29.2112981  27.4381643  34.1358419  28.7105853
  26.7639594  35.6876867  27.3629523  25.8749168  35.2011049  26.9617785
  26.6179603  36.7678640  27.3621355  27.9011092  35.3682717  26.5024586
  27.8793282  34.4811491  26.0201325  28.9517846  36.1662683  26.3183401
  29.0157885  37.3875723  26.9171549  28.2584274  37.6963664  27.5097343
  29.8203336  37.9791548  26.7660355  29.9444283  35.7357502  25.5277040
  29.8803507  34.8271910  25.0912244  30.7521260  36.3217934  25.3718952
  24.8351813  34.9754881  31.7789430  24.7187842  36.0122003  32.4256155
  23.8618340  34.0615577  31.6739270  23.9611371  33.2607758  31.0664844
  22.5961840  34.2477711  32.3692964  22.1858234  35.2306045  32.1374734
  21.5897377  33.1817263  31.9305384  21.3575562  33.2970839  30.8718205
  21.9964078  32.1858345  32.1063763  20.4105010  33.3502514  32.6924576
  19.7642997  32.6896991  32.4322761  22.7493404  34.2433280  33.8913993
  22.1884666  35.0966108  34.5939113  23.4862605  33.2661555  34.3825476
  23.8035845  32.5431916  33.7526842  23.8198318  33.1510874  35.7738163
  22.9133389  33.0876909  36.3757721  24.6275890  31.9102227  35.9934457
  23.9757650  31.0660093  35.7686601  25.4474547  31.9367651  35.2756604
  25.1809267  31.7588900  37.3779646  26.0434252  31.0954752  37.3141056
  25.5071670  32.7482825  37.6985408  24.1912621  31.2044588  38.3811255
  23.0167189  30.8868135  38.0157820  24.6237382  31.0872498  39.5526256
  24.5932465  34.3584986  36.3269327  24.3948566  34.6810580  37.4926166
  25.4697515  34.9651557  35.5139043  25.5844841  34.6059668  34.5769309
  26.3445161  36.0628040  35.9515811  26.4102025  36.0615023  37.0395989
  27.7754121  35.9109105  35.3679117  27.5563545  35.8478544  34.3020145
  28.4245530  36.7663314  35.5549174  28.4870084  34.6130108  35.8262754
  27.7796752  33.7870638  35.7514963  29.7140810  34.3117635  34.9666959
  30.4221244  35.1371133  35.0413355  30.1876044  33.3946895  35.3171978
  29.4089891  34.1883131  33.9275716  28.7875674  34.6092702  37.3280312
  27.8551694  34.6958198  37.8859224  29.2861972  33.6780697  37.5969834
  29.4355475  35.4512554  37.5715094  25.8498248  37.4819773  35.6562631
  26.5237730  38.4494775  36.0594258  24.6831039  37.5999023  35.0167274
  24.1385506  36.7704620  34.8280744  24.1447278  38.8928580  34.5970721
  24.7373315  39.3156842  33.7858150  22.7140137  38.6782269  34.0972685
  22.6685371  37.7027735  33.6129941  22.0499845  38.6854846  34.9616253
  22.2829683  39.7387391  33.1268028  22.1116072  40.6839675  33.6418557
  23.0363834  39.8792725  32.3517427  20.9823620  39.2644864  32.4903150
  21.1901484  38.9033159  31.4831012  20.5687052  38.4527402  33.0886925
  19.9703091  40.4161646  32.4217950  19.0728280  40.0507528  31.9226933
  19.7233139  40.7127197  33.4411809  20.5089959  41.5942081  31.6774792
  20.7375275  41.3197298  30.7327387  19.8132327  42.3260369  31.6564977
  21.3403847  41.9332244  32.1400370  24.1038017  39.8747279  35.7696699
  24.5788401  41.0107839  35.6786901  23.5416493  39.3991920  36.9003565
  23.0348631  38.5255702  36.9075668  23.4436237  40.2709893  38.0787569
  23.1451510  41.2666061  37.7504881  22.4159558  39.7645222  39.1190688
  22.6426248  38.7301099  39.3773548  22.4953034  40.3867958  40.0104607
  20.9874933  39.8346409  38.6031896  20.6826540  40.5648844  37.6561233
  20.0800297  39.0467894  39.2278060  19.1163727  39.0541666  38.9254639
  20.3710603  38.4554425  39.9931234  24.7688594  40.6445066  38.6959636
  24.9403231  41.8016233  39.0848108  25.7051459  39.6946864  38.7982291
  25.4809254  38.7322391  38.5896155  27.0451097  40.0030846  39.2772454
  26.9791295  40.4749082  40.2576169  27.8997789  38.7345900  39.4000820
  28.0169683  38.2718657  38.4201574  28.8810527  38.9878138  39.8014290
  27.2498401  37.8264508  40.2773777  27.7775640  37.0288481  40.3606684
  27.7772029  41.0088455  38.4064041  28.5339729  41.8159424  38.8933362
  27.5602319  40.9286126  37.0962273  27.0033208  40.1819946  36.7057010
  28.2131783  41.8502873  36.1835374  29.2728838  41.9599463  36.4139681
  28.0510362  41.3469201  34.7267415  27.0348529  40.9734808  34.6001916
  28.3214911  42.5083163  33.6800858  29.3377078  42.8819733  33.8057229
  28.1995202  42.1218891  32.6682074  27.6133081  43.3200785  33.8462728
  29.0130748  40.1599419  34.4996411  30.0253327  40.5641596  34.4930985
  28.8970001  39.4860061  35.3484264  28.7615296  39.3873197  33.1939041
  28.8778890  40.0605383  32.3445884  29.4786050  38.5706578  33.1104453
  27.7495549  38.9823865  33.1999155  27.6746151  43.2821464  36.3877025
  28.4587904  44.2557417  36.4280653  26.3617279  43.3871866  36.5770615
  25.7740353  42.5726020  36.4713796  25.7147799  44.6875659  36.8358508
  26.0370514  45.4066145  36.0827178  24.1691016  44.5319171  36.7455107
  23.8302264  43.8217177  37.4997523  23.6953852  45.4982740  36.9182746
  23.8974670  44.1665781  35.7551364  26.1827267  45.2437749  38.1845488
  26.4626854  46.4484979  38.3326690  26.3587420  44.3528561  39.1647484
  26.2895805  43.3583303  39.0027779  26.6434016  44.8116681  40.5092488
  25.9966200  45.6491602  40.7707442  26.3835423  43.6526580  41.5098281
  25.3356194  43.3668213  41.4189750  27.0150810  42.8144808  41.2153492
  26.6865796  44.0350022  42.9720949  27.7304023  44.3431958  43.0316904
  26.0440705  44.8802377  43.2187892  26.4315523  42.8858506  43.9719953
  26.2590859  41.7036428  43.5415978  26.4190232  43.1748721  45.2002329
  28.1111013  45.2783608  40.6314481  28.3660715  46.3375943  41.2184708
  29.0579417  44.4532875  40.1294679  28.7710371  43.6664177  39.5650026
  30.5069096  44.6272296  40.4113582  30.6538843  45.3927886  41.1732092
  31.0900985  43.3123048  40.9222833  30.7608519  42.4728179  40.3099454
  32.1788832  43.3629617  40.9132411  30.6893827  43.0009523  42.3235471
  31.1830429  43.7696545  43.3925249  31.8673252  44.5938411  43.1910949
  30.8035921  43.4841693  44.7006400  31.1883349  44.0892832  45.5215607
  29.9376337  42.4320960  44.9609993  29.6450134  42.2123157  45.9877271
  29.4418618  41.6567923  43.9137002  28.7719053  40.8200389  44.1114427
  29.8144696  41.9634061  42.5897182  29.4122287  41.3801763  41.7613793
  31.3359141  45.0853084  39.2369999  32.4229410  45.6428030  39.4177162
  30.8149242  44.9031965  38.0396288  29.8627052  44.5884018  37.9201181
  31.6626000  45.0654834  36.8257286  32.6315189  45.4925516  37.0843947
  31.8884531  43.6757372  36.1989658  30.9589723  43.2134740  35.8665842
  32.5646273  43.7816258  35.3506286  32.5388299  42.7017781  37.1504509
  33.8522646  42.8199515  37.5403115  34.1506626  41.8395786  38.3960063
  35.1302271  41.8030507  38.8726803  33.1004593  41.0362126  38.5025622
  33.0517488  40.1789431  39.0343668  32.0624576  41.5678371  37.7561381
  31.0919218  41.0719038  37.7415876  31.1063144  46.0295749  35.8188225
  31.5398416  46.0189637  34.6230088  30.2412786  46.9318472  36.2741838
  29.9374220  46.9257725  37.2373731  29.6904401  47.9925754  35.3586323
  30.1512568  47.8466720  34.3816679  28.1480344  47.8457790  35.2080184
  27.6815741  48.0751480  36.1660919  27.5875576  48.8196350  34.1053778
  28.0532454  48.5905529  33.1468603  26.5079461  48.6937884  34.0235193
  27.8128675  49.8498036  34.3812193  27.8818301  46.5167977  34.7674333
  26.9347819  46.3971237  34.6655605  30.0236143  49.3268627  35.9758636
  30.0049598  49.4499057  37.1792091  30.2873967  50.3434365  35.1546318
  30.0848759  50.2906649  34.1665529  30.8683106  51.5866917  35.6815069
  30.7930105  51.6037666  36.7687684  32.3590705  51.6786682  35.2885461
  32.5116261  51.6699099  34.2093105  32.6889463  52.6352317  35.6938461
  33.1585306  50.5624564  35.9188734  33.6143404  50.6828196  37.2212667
  33.4187315  51.6140361  37.7529362  34.3013586  49.6601355  37.8482255
  34.6936861  49.7811566  38.8579456  34.5367235  48.4654925  37.1395405
  35.2047792  47.4561931  37.7905468  35.4463237  47.6859763  38.6907998
  34.0675355  48.2981300  35.8577892  34.2377319  47.3653404  35.3201673
  33.3609181  49.3473190  35.2405442  32.9675457  49.2201778  34.2319842
  30.1880089  52.8024015  35.1302643  29.8413976  52.8361208  33.9408281
  30.0362227  53.7951474  35.9957714  30.1245465  53.6498308  36.9913523
  29.7378536  55.1452098  35.5153096  29.0508299  55.0927188  34.6707136
  29.0931610  55.9719740  36.6148923  28.2742181  55.3817220  37.0260302
  29.8478570  56.1313220  37.3850496  28.5581982  57.3231577  36.1385727
  28.1566698  57.2295288  35.1295586  27.7633026  57.6299705  36.8183586
  29.6287690  58.3892007  36.1351620  30.4653660  58.4552752  37.0468805
  29.6294622  59.2206727  35.0957666  30.3221951  59.9535290  35.0396926
  28.9372537  59.1149203  34.3679168  31.0778403  55.7168502  35.1197228
  32.0144370  55.7580631  35.9520563  31.2049947  56.1067448  33.8546216
  30.4415641  56.0054773  33.2011555  32.4794096  56.6346040  33.3581759
  33.2170399  56.5954713  34.1597177  33.0075695  55.8318628  32.1683432
  32.2049394  55.9488497  31.4401962  33.9096070  56.3167125  31.7950482
  33.2847802  54.3336463  32.3898077  32.4403218  53.9040522  32.9287324
  33.4723952  53.6015436  31.0833716  34.3170256  54.0303031  30.5440539
  33.6658896  52.5473257  31.2815770  32.5699573  53.6975297  30.4796392
  34.4850568  54.1305121  33.3035011  34.2899140  54.5961853  34.2695069
  34.6592753  53.0636823  33.4435843  35.3667454  54.5859940  32.8526570
  32.3434553  58.0962936  32.9709331  31.4558737  58.4874850  32.2191850
  33.2476428  58.8804210  33.5225218  33.6938618  58.5919557  34.3814605
  33.5249044  60.1950624  33.0204123  32.6051834  60.6951045  32.7168168
  34.1838564  61.0163458  34.1410607  35.0866967  60.4975982  34.4633644
  34.4521240  61.9882089  33.7267967  33.2454044  61.2141757  35.3499139
  31.9965350  61.1895059  35.1792367  33.7558947  61.3881341  36.4852425
  34.3508093  60.1924060  31.7029617  34.9859966  59.1726959  31.3265438
  34.3151965  61.3338083  30.9611549  33.3769196  62.4690733  31.1278638
  33.6949375  63.0751008  31.9762126  32.3752241  62.0816746  31.3139480
  33.4718319  63.2056272  29.8270294  33.3189351  64.2723352  29.9909060
  32.7185016  62.8335883  29.1326362  34.8672566  62.9195126  29.3146308
  35.6325741  63.5490136  29.7686315  34.9150208  63.0155178  28.2299182
  35.0878070  61.4512335  29.7222225  34.6237731  60.7718165  29.0072656
  36.5922122  61.1276584  29.8363324  37.1794368  60.6835558  28.8763688
  37.2422670  61.3256918  30.9668471  36.8548734  61.6962791  31.8228206
  38.6769391  60.9592716  30.9463962  39.0431011  61.2492822  29.9615519
  39.1521246  61.5787282  31.7070352  39.0412219  59.4817262  31.2025181
  40.2135695  59.1753445  31.3769782  38.0659914  58.5758339  31.2214531
  37.0986342  58.8243158  31.0711992  38.3738927  57.2064797  31.6825768
  39.4237377  56.9852749  31.4902412  38.1108361  57.0583506  33.1756451
  38.3274230  56.0323795  33.4732566  38.7649189  57.7397124  33.7197239
  36.7737746  57.3581898  33.4719712  36.6253301  57.2600478  34.4153334
  37.7288877  56.1063182  30.8522358  36.9292318  56.3683051  29.9548021
  38.1362066  54.8561014  31.1040478  38.7745769  54.6583041  31.8613185
  37.6805647  53.7508361  30.2821104  36.6691339  53.9604411  29.9340117
  38.5902759  53.5283986  29.0519397  38.1852509  52.7229501  28.4393169
  38.6373946  54.4440441  28.4624712  40.3347287  53.0652217  29.4159886
  40.7236949  52.9801122  28.1469890  37.6812011  52.4954176  31.1667527
  38.3060759  52.4937221  32.2358400  36.9673403  51.4814165  30.7174961
  36.4399851  51.5664622  29.8603128  36.8448585  50.2298301  31.4943969
  37.7528845  50.0803332  32.0785531  35.6385755  50.2715835  32.4589128
  35.6537079  49.3663652  33.0659137  35.7460978  51.1431900  33.1045451
  34.3909426  50.3518689  31.7500769  33.6663635  50.3758646  32.3793695
  36.7549294  49.0365282  30.5800226  36.4104004  49.1567159  29.3707147
  37.0536502  47.8612121  31.1421462  37.3187160  47.8198279  32.1158643
  36.9116261  46.5872803  30.3977424  36.1645657  46.7043664  29.6127005
  38.2408093  46.1784961  29.7521400  39.0239545  46.3935839  30.4791340
  38.1905895  45.1032874  29.5803723  38.5373832  46.8444430  28.5210857
  39.3811253  46.5339386  28.1845057  36.5858759  45.5192260  31.4252743
  36.9792638  45.6543606  32.5950805  35.8852525  44.4882414  30.9576510
  35.5334738  44.5505889  30.0129479  35.5624184  43.3131877  31.7321599
  35.9890316  43.3938320  32.7319583  34.0287938  43.1748319  31.8594357
  33.8301857  43.9212268  32.6285577  33.5476186  43.4758598  30.9288699
  33.4713280  41.8199245  32.3071364  33.8207895  41.0439861  31.6260365
  33.9622870  41.4945423  33.7707797  33.6127947  42.2698532  34.4525765
  33.5622023  40.5298000  34.0827176  35.0515389  41.4588563  33.7896783
  31.9345409  41.7369123  32.1564731  31.6629687  41.8837959  31.1111152
  31.5889307  40.7573982  32.4869378  31.4669475  42.5109472  32.7650168
  36.1778775  42.0640831  31.0599213  36.0329078  41.8833502  29.8353865
  36.8277017  41.2053812  31.8590762  36.9947539  41.4326256  32.8288972
  37.3471492  39.9171599  31.3392011  37.0253119  39.7729742  30.3078280
  38.8813220  39.9168162  31.3787970  39.1706992  40.1277602  32.4082933
  39.3528076  38.9899762  31.0520415  39.4605737  41.0112550  30.5384304
  39.5148174  40.9220732  29.1683160  39.9719863  42.0680808  28.6792462
  40.0624814  42.2144025  27.6029101  40.2498055  42.8719610  29.6890616
  40.6400391  43.8011691  29.6228046  39.9197477  42.2367012  30.8637410
  40.0554076  42.7481610  31.8166872  36.8379272  38.7105610  32.1275102
  36.6673905  38.8294426  33.3147479  36.5514155  37.5998885  31.4145028
  36.6482405  37.6112099  30.4092187  36.1055088  36.3519814  32.0594913
  35.9260422  36.4780904  33.1271933  34.8146821  35.8476272  31.4016433
  34.9812342  35.7077965  30.3335572  34.5243479  34.8979327  31.8509613
  34.0199911  36.5782846  31.5523258  37.1828350  35.3234303  31.8912180
  37.9234621  35.3016232  30.8847882  37.2676510  34.4127836  32.8564344
  36.7261399  34.4547060  33.7079669  38.1859274  33.3265952  32.6885141
  38.3546937  33.1285264  31.6300313  39.5486751  33.7068750  33.3483368
  39.9816536  34.5139722  32.7573859  39.3330188  34.0686761  34.3536687
  40.5699198  32.5092444  33.4292220  41.3611541  32.7794602  34.1285306
  40.0475000  31.6257734  33.7961808  41.1923125  32.1822301  32.1043002
  41.7201114  33.0725352  31.3934520  41.1456323  30.8857571  31.7229975
  41.5491307  30.6074332  30.8399198  40.7074795  30.2015544  32.3229893
  37.5994762  32.0790043  33.3438034  37.3819068  32.0806002  34.5464679
  37.4068956  31.0095711  32.5533735  37.5902650  31.0937538  31.5637330
  36.9185720  29.7069796  33.0700990  36.1618905  29.8710421  33.8373120
  36.2860815  28.8763487  31.9180912  35.6665725  29.5474985  31.3232249
  37.0969085  28.4888243  31.3012570  35.3989116  27.6667209  32.4483998
  36.0681869  26.9162589  32.8690876  34.7426286  28.0471717  33.2311206
  34.5481893  27.0277954  31.3294057  35.2040997  26.6267748  30.5567072
  33.9435519  26.2222308  31.7460335  33.6605965  28.0126016  30.7236386
  32.7984124  28.2149556  31.2092216  33.8886404  28.6121740  29.5596146
  34.9905861  28.3207881  28.8614786  35.6484784  27.6441737  29.2212992
  35.1603204  28.7785556  27.9773187  33.0416830  29.5342507  29.1393623
  32.2374072  29.7710908  29.7025205  33.2021555  29.9983118  28.2567556
  38.1057685  28.9704540  33.6705458  39.2186310  28.9676429  33.0912390
  37.8939180  28.3593029  34.8435537  36.9860376  28.4172742  35.2822927
  38.9389871  27.6094868  35.5194268  39.7571674  27.4214059  34.8242249
  39.4819697  28.3800651  36.7663927  38.6741675  28.5039515  37.4876473
  40.6270756  27.6039810  37.4134281  41.4355027  27.4800913  36.6928744
  40.9946739  28.1531032  38.2802828  40.2695242  26.6240361  37.7295992
  39.9644207  29.7809423  36.2917558  40.6510726  29.6424582  35.4566318
  39.0956067  30.3476698  35.9569696  40.6986097  30.5757196  37.4540073
  41.5678584  30.0097908  37.7890165  41.0202609  31.5486979  37.0825873
  40.0123927  30.7150005  38.2893557  38.3425153  26.2774525  35.9627281
  37.2883428  26.2340808  36.6235005  39.0436278  25.1960080  35.6009643
  39.8924185  25.3127308  35.0661470  38.5599870  23.8232552  35.8568671
  37.4751970  23.8233421  35.9633081  38.9399874  22.9006261  34.6790606
  39.9967689  23.1135570  34.5179008  38.7994617  21.8255361  34.7910163
  38.2239212  23.2990172  33.4187333  36.8724303  23.1061807  33.2690521
  36.4671041  23.6383316  32.1239158  35.4244089  23.5772931  31.8122107
  37.5160389  24.1878964  31.5382647  37.5167382  24.6635372  30.6472735
  38.6205120  24.0103279  32.3386881  39.5837928  24.4219197  32.0373852
  39.1205402  23.3936706  37.2100364  39.9934681  22.5425147  37.2968733
  38.6252798  24.0624507  38.2427161  37.9470314  24.7856536  38.0502168
  39.0445442  23.8549212  39.6318435  39.1753877  22.7915828  39.8325686
  40.3464916  24.5665626  39.9277159  40.2285913  25.6338059  39.7401226
  40.6179352  24.4094887  40.9716251  41.1322614  24.1698206  39.2848621
  37.9251047  24.3412862  40.5386733  37.0688752  25.1031506  40.0959471
  37.8892722  23.8629903  41.8137506  38.8429815  22.9201388  42.4505887
  39.6755342  23.4652373  42.8953626  39.2245682  22.2119962  41.7150449
  37.9704177  22.2628179  43.4780621  38.5664894  21.8329659  44.2830620
  37.3526759  21.4851355  43.0289444  37.0922624  23.4452605  43.9889072
  37.7210801  24.0093299  44.6777561  36.1492243  23.1993130  44.4770554
  36.8265853  24.2769123  42.7236072  35.8585656  24.1204443  42.2476305
  36.9929851  25.7545777  43.0618689  38.1393203  26.2214230  43.1864851
  35.8665186  26.4582698  43.2506559  34.4715380  26.0565403  42.9705778
  34.2768050  25.0838188  43.4222328  34.3221814  25.9925436  41.8927578
  33.6777804  27.1338923  43.5842189  33.4928520  26.9083506  44.6344719
  32.7264148  27.2387239  43.0626681  34.5284289  28.3930862  43.4253862
  34.3291898  29.0557531  44.2675711  34.3410576  28.9252458  42.4927567
  35.9803264  27.9164898  43.4713168  36.5700065  28.3420675  42.6593690
  36.6496616  28.2353652  44.8073077  37.3061111  29.2724735  44.9183189
  36.5216165  27.3446927  45.8142873  35.8764739  26.5681922  45.7836685
  37.2280381  27.6059540  47.0592661  37.0249579  28.6276363  47.3802379
  36.7771004  26.6262078  48.1938437  37.3398690  26.8792180  49.0923851
  35.7147927  26.7930411  48.3720827  37.0143597  25.1294016  47.8376396
  37.9117406  25.1051421  47.2194003  37.2025052  24.5991663  48.7712086
  35.8476169  24.4448454  47.0811893  35.0423875  25.1274703  46.4016676
  35.7353064  23.1836635  47.1915869  38.7316596  27.6108217  46.8303895
  39.4601085  28.4093893  47.4558862  39.2345835  26.7338269  45.9646796
  38.6694293  26.0070047  45.5494333  40.6636462  26.7615064  45.6571608
  41.2422329  26.7957359  46.5802886  41.0600965  25.5068088  44.8782551
  40.7750315  24.7021668  45.5560371  40.3989527  25.5025590  44.0116694
  42.4909809  25.3001429  44.4227029  42.6554730  25.9294718  43.5480668
  43.5256365  25.6535607  45.5123894  43.3620597  25.0242761  46.3872279
  44.5314111  25.4853404  45.1273956  43.4150704  26.7009774  45.7930918
  42.6397850  23.8339871  44.0263463  41.9461390  23.6034622  43.2177593
  43.6607449  23.6492000  43.6922865  42.4189063  23.2005954  44.8854892
  41.0848441  28.0330881  44.8751760  42.0965311  28.6864732  45.1977334
  40.3251640  28.3752646  43.8447438  39.5676697  27.7935483  43.5162506
  40.6227185  29.6303648  43.1040949  41.6152262  29.6099214  42.6539730
  39.5793348  29.8752106  41.9890815  38.5795913  29.8010085  42.4169907
  39.7701255  31.2772699  41.3661378  40.7695492  31.3520754  40.9375853
  39.0272937  31.4318727  40.5835783  39.6482392  32.0377619  42.1374336
  39.6643980  28.7807031  40.8869511  39.4756974  27.8028238  41.3299479
  38.9186615  28.9804414  40.1174829  40.6585264  28.7908323  40.4400653
  40.6561897  30.8241694  44.0761342  41.5830311  31.6659835  44.0357870
  39.6368644  30.9091895  44.9227188  38.8515638  30.2851057  44.8047291
  39.5233652  32.0027981  45.9213380  39.5878882  32.9655299  45.4143040
  38.1660446  31.9312729  46.6831778  37.3088064  32.0522079  46.0208964
  38.0995542  30.9688989  47.1906375  38.0404913  32.9913479  47.7497983
  37.9798405  32.7865856  49.0995712  37.9922702  31.7467930  49.4263383
  37.9141325  33.9771693  49.7740502  37.8727291  34.0868444  50.7772235
  37.9206139  35.0029772  48.8581457  37.8633784  36.3739167  49.0759300
  37.8062599  36.7362670  50.1023502  37.8830827  37.2088518  47.9496290
  37.8440738  38.2905656  48.0779782  37.9538845  36.6682596  46.6233838
  37.9610682  37.3147959  45.7458653  38.0166777  35.2715681  46.4188262
  38.0455620  34.8911578  45.3977706  38.0069559  34.4242272  47.5612346
  40.7541264  32.0895279  46.8761724  41.2755881  33.1599931  47.1736417
  41.1971442  30.9228030  47.3719366  40.6927984  30.0703850  47.1741533
  42.3767837  30.8475982  48.2436040  42.1996223  31.3775762  49.1794652
  42.6594650  29.3616748  48.5632160  43.1736040  29.2902787  49.5216851
  41.7160854  28.8182318  48.6161764  43.4816079  28.7919739  47.5368711
  43.6540318  27.8697141  47.7401114  43.6138835  31.5007688  47.6102692
  44.4900824  31.9908518  48.3105201  43.6923103  31.5395763  46.2720284
  42.9730072  31.1144738  45.7045866  44.8105896  32.1704509  45.6034011
  45.7275737  32.1519805  46.1923818  45.0719103  31.5033103  44.2094355
  44.1438298  31.5191426  43.6380194  46.1725213  32.2522005  43.4245534
  47.1010940  32.2363902  43.9951702  46.3294504  31.7642183  42.4626036
  45.8644142  33.2849558  43.2615026  45.3922541  30.0104920  44.4038557
  46.4483244  29.9471495  44.6661608  44.7885662  29.6661814  45.2435644
  45.1120081  29.1154955  43.1627701  45.7157283  29.4589321  42.3227267
  45.3676768  28.0815740  43.3945873  44.0559698  29.1779660  42.9001288
  44.5609335  33.6721695  45.3858716  45.4323606  34.5254590  45.6819268
  43.4006328  33.9644722  44.7995540  42.7942899  33.2050866  44.5242701
  42.9715572  35.3644007  44.4870539  43.6539958  35.9113738  43.8365179
  41.5845005  35.3458254  43.8366610  41.0107016  34.5474579  44.3072600
  40.8121598  36.7032594  43.9872725  41.3851629  37.5020827  43.5164755
  39.8378558  36.6229601  43.5052101  40.6761517  36.9290907  45.0449131
  41.7436018  34.9314691  42.3883967  42.1916014  33.9389193  42.3410315
  40.7663060  34.9118094  41.9061043  42.3875526  35.6450871  41.8744147
  42.9484727  36.2474754  45.7542836  43.2257133  37.4588261  45.6891066
  42.6229374  35.6572600  46.8993904  42.3499020  34.6850609  46.9188807
  42.4824095  36.4549369  48.1483650  42.0383577  37.4240333  47.9208362
  41.5785472  35.7245347  49.1497514  41.2592548  36.4266583  49.9199293
  40.7042300  35.3387855  48.6254738  42.3433536  34.5533561  49.8060935
  42.6309629  33.8395589  49.0341639  43.2380657  34.9414276  50.2929126
  41.4469329  33.8435979  50.8597431  40.5423709  33.4637379  50.3847979
  41.9912746  33.0171496  51.3166619  41.0638935  34.7897865  51.9087641
  40.1804148  35.2619406  51.7797860  41.7802823  35.0716148  52.9886409
  42.9631063  34.4702756  53.1878252  43.3064878  33.8021004  52.5127466
  43.5046892  34.6885390  54.0119300  41.3084507  35.9469799  53.8693378
  40.4136696  36.3873005  53.7093859  41.8466495  36.1682098  54.6948668
  43.7924355  36.9071777  48.8032848  43.7929858  37.7903387  49.6713875
  44.8950493  36.2807360  48.3984136  44.7952409  35.5453510  47.7133248
  46.2198994  36.5359316  48.9503069  46.1649826  36.6547811  50.0324151
  47.1326973  35.3516861  48.6348272  47.0917407  35.1639941  47.5618904
  48.1508008  35.6190983  48.9177688  46.7132142  34.1035054  49.3814363
  45.6479297  33.9269055  49.2328354  47.2778611  33.2472870  49.0124297
  46.9920507  34.2933050  50.8582258  46.5352363  35.2170750  51.2132872
  46.5986783  33.4515960  51.4282113  48.4383689  34.3716383  51.0747638
  49.0323573  34.1474855  50.2892495  49.0093058  34.7201374  52.2215717
  48.2478305  35.0423174  53.2670196  47.2417424  35.0195982  53.1811675
  48.6804020  35.3076930  54.1402649  50.3393013  34.7400545  52.3247139
  50.9082898  34.4895390  51.5287276  50.7710850  35.0055550  53.1983105
  46.7960549  37.8694096  48.4246032  47.6920508  37.9022364  47.5748599
  46.3039424  38.9503622  49.0074185  45.5565818  38.8524743  49.6797052
  46.7404615  40.3033528  48.6446840  46.5849536  40.4826814  47.5808430
  45.9207847  41.3199122  49.4357326  44.8595835  41.2124999  49.2112024
  46.0834081  41.1653205  50.5023887  46.2792863  42.7559966  49.1484083
  45.8161724  43.3729581  47.9809847  45.1968882  42.8125715  47.2805893
  46.1502750  44.7224977  47.7082443  45.7833628  45.1934804  46.7962951
  46.9404915  45.4455580  48.5945963  47.2040191  46.4809101  48.3784965
  47.3957836  44.8405433  49.7634659  48.0108945  45.3964504  50.4710717
  47.0514540  43.4835913  50.0310617  47.3990590  43.0033067  50.9457186
  48.2489527  40.5082416  48.8524914  48.8888022  41.2041314  48.0794712
  48.8414922  39.8310184  49.8465409  48.2898121  39.2865589  50.4940842
  50.2826363  39.9283164  50.0748079  50.6067725  40.9581932  49.9251797
  50.6468120  39.4993877  51.5186494  51.7358236  39.5036812  51.5648502
  50.2502320  40.2134337  52.2404268  50.1334593  38.1128773  51.8464406
  48.9959760  37.7357319  51.4214287  50.8430782  37.4070794  52.5812761
  51.1620055  39.1502861  49.1172669  52.3775850  39.3464341  49.1371826
  50.5833930  38.2813007  48.2955651  49.5778000  38.1872012  48.2903323
  51.3628288  37.4561594  47.3699439  52.3865950  37.8240068  47.3014594
  51.3943913  36.0103505  47.8870102  50.3622746  35.6906087  48.0305352
  51.8605924  35.3963986  47.1164133  52.1506387  35.8548671  49.1766004
  52.0135281  36.7432262  49.7931389  51.7852374  34.9800402  49.7144310
  53.6422304  35.6757613  48.8625299  53.9319767  36.3881841  48.0901312
  54.2219778  35.8644748  49.7660672  53.9169835  34.2347110  48.3646766
  54.2125447  33.6470120  49.2337877  52.9778550  33.8488686  47.9681131
  54.9855705  34.1386975  47.3069370  55.8559759  34.4957801  47.6743416
  55.1053534  33.1730934  47.0360851  54.7116948  34.6828582  46.5013439
  50.7889552  37.4054685  45.9590855  50.5166739  36.3294186  45.4553907
  50.5849060  38.5720425  45.3222433  51.0864392  39.8926883  45.7333020
  52.1018523  39.7954316  46.1174605  50.4421721  40.3032879  46.5107509
  51.0245812  40.6932030  44.4501895  52.0100055  40.6827254  43.9844339
  50.7483790  41.7195702  44.6918175  50.0308273  40.0781203  43.5976959
  50.3038591  40.2179175  42.5517468  49.0300877  40.4752814  43.7676453
  50.0690767  38.5728692  43.9546375  49.0835853  38.1078258  43.9799271
  50.9611236  37.8252646  42.9546871  50.4602954  37.2955944  41.9709460
  52.2566863  37.7609147  43.2123138  52.6385291  38.2678905  43.9979797
  53.1885290  37.1358988  42.2695762  52.9870521  37.4933921  41.2597718
  54.6517036  37.4892333  42.6371842  55.2818627  37.1868463  41.8007867
  54.7065751  38.5708672  42.7602996  55.1398044  36.8046872  43.9172354
  54.6165136  35.8519234  43.9979132  56.2107894  36.6237915  43.8257473
  54.8890230  37.6053172  45.1844158  53.8704093  38.2809249  45.3456343
  55.8472641  37.5379199  46.0975536  55.7497090  38.0445052  46.9658599
  56.6706332  36.9802835  45.9209003  52.9210367  35.6171227  42.0892646
  53.3895559  35.0059587  41.1122563  52.1102321  35.0163270  42.9630639
  51.7194519  35.4930874  43.7631200  51.7705240  33.5913154  42.7612787
  52.6932482  33.0114552  42.7402695  50.8589988  33.0067043  43.8057603
  50.6009306  31.9899796  43.5094969  51.5174769  32.9828302  45.1616993
  51.7754328  33.9993206  45.4588620  50.8310391  32.5544636  45.8920445
  52.4227331  32.3774214  45.1159604  49.6579259  33.7943388  43.8531911
  49.0646747  33.4335847  44.5161465  51.0696451  33.4083134  41.4121571
  51.1678751  32.3324207  40.8228679  50.4120982  34.4487431  40.8962007
  50.1666940  35.2440847  41.4683089  49.8744644  34.3828752  39.5170018
  50.4131446  33.6235125  38.9501764  48.3988755  34.0243739  39.5280932
  48.1230491  33.6500461  38.5422444  48.3084874  33.2212480  40.2594746
  47.4909615  35.1442717  39.9057783  46.8448829  35.8799342  38.9256007
  47.0304546  35.6433429  37.8778950  45.9894297  36.8849579  39.2546872
  45.4656105  37.4413438  38.4774163  45.7742014  37.1959440  40.6067779
  44.9454127  38.2312268  40.9331456  44.5709874  38.6684975  40.1649010
  46.3926131  36.4832738  41.6090215  46.2277413  36.7268337  42.6585911
  47.2268113  35.4530848  41.2684486  47.7002202  34.8549730  42.0470669
  50.0950277  35.5851078  38.5594765  49.8614713  35.4889659  37.3318214
  50.5348028  36.7007951  39.0898498  50.6051978  36.8292175  40.0891753
  50.8625662  37.8171524  38.2301385  50.3463003  37.7318972  37.2739480
  50.4121099  39.1149155  38.9171218  51.0946258  39.2884480  39.7490821
  50.5199104  39.9162973  38.1861867  48.9782722  39.0883515  39.4337075
  48.2796728  38.9292906  38.6122701  48.8539932  38.2979186  40.1738917
  48.6973650  40.4539027  40.0891171  49.2151452  40.4468246  41.0482587
  49.1470402  41.2049095  39.4395939  47.2693899  40.7778654  40.3022400
  46.6832278  40.4723550  39.4355348  46.8982330  40.2658441  41.1900327
  47.1387749  42.3366787  40.5017242  47.4822457  42.8113059  39.6790113
  46.1689185  42.5771443  40.6488802  47.6815096  42.6199169  41.3050387
  52.3525724  37.8449614  37.8957521  53.2125398  38.2899646  38.7464802
  52.6706279  37.5285304  36.6338052  51.9590238  37.4570956  35.9206320
  54.0721467  37.2004758  36.2657425  54.5735432  36.7518592  37.1233228
  54.1318693  36.2007263  35.0762922  53.3193723  36.3038845  34.3570521
  55.0797018  36.4268264  34.5878331  54.1826456  34.7488592  35.4624267
  54.9844530  34.2642420  36.4771129  54.8579274  32.9500720  36.5535225
  55.3972623  32.3829996  37.3122357  54.0251026  32.5563460  35.6050861
  53.7303938  31.6067968  35.4273138  53.6153397  33.6598283  34.8857252
  52.9531898  33.5365913  34.0287122  54.9639212  38.4139379  35.9063874
  56.1928796  38.2274423  35.6130573  54.3545209  39.6108049  35.9323648
  53.3597800  39.6535281  36.1019658  55.0810105  40.8651174  35.7542779
  55.8985256  40.7314083  35.0458358  54.1302414  41.9323561  35.2080056
  53.1944701  42.0298269  35.7583970  54.6704972  42.8784903  35.2404693
  53.7553528  41.6936499  33.7484828  54.7643740  41.7223015  32.7514104
  55.7934131  41.9397353  33.0375938  54.4462044  41.4728832  31.4015835
  55.2133981  41.5355722  30.6298422  53.1412635  41.1446983  31.0583386
  52.9014303  40.9386651  30.0152038  52.1206559  41.0756121  32.0515643
  51.0980079  40.8163276  31.7775883  52.4426106  41.3456069  33.3957094
  51.6715553  41.2843530  34.1637077  55.6213494  41.3599761  37.0941133
  56.2144294  42.4113981  37.1431129  55.3377280  40.6401341  38.1856092
  54.7516331  39.8190667  38.1362085  55.8233057  41.0744278  39.5096939
  56.1464522  42.1153208  39.5244305  54.7312772  40.8566472  40.5912828
  54.3825965  39.8258830  40.5276640  55.3005002  41.1392352  42.0679676
  55.6489679  42.1700147  42.1325008  54.5093654  40.9771943  42.8000532
  56.1296607  40.4623703  42.2739920  53.5229513  41.7250675  40.2356428
  53.8612728  42.7608815  40.2626368  53.2365083  41.4633784  39.2170316
  52.3041943  41.5565298  41.1730096  52.5897617  41.8185021  42.1917940
  51.4977388  42.2111490  40.8425517  51.9649986  40.5209977  41.1461904
  57.1028574  40.3550404  39.9086591  57.1493047  39.1051650  40.0022606
  58.1232877  41.1318214  40.2278976  58.0512731  42.1350041  40.1354982
  59.3725119  40.5751918  40.6872628  59.5752003  39.6279376  40.1875366
  60.4941608  41.5427977  40.3647375  60.4594782  41.7600406  39.2971693
  60.3238895  42.4606361  40.9274810  61.8935994  40.9609176  40.7311777
  61.9398414  40.9195416  41.8194104  61.9267708  39.9488130  40.3278838
  63.0888181  41.7626877  40.1988883  63.9887717  41.2387696  40.5209013
  63.0250676  41.7393677  39.1110044  63.1459347  43.1889986  40.6662736
  62.3433300  43.7317350  40.1669105  62.9703485  43.1904756  41.7420368
  64.4723424  43.8628772  40.3698279  64.6350331  43.8619973  39.3730176
  64.4488984  44.8148937  40.7063023  65.2161401  43.3603691  40.8328069
  59.3282591  40.3044582  42.2032882  59.7445948  39.2401162  42.6687242
  58.8255617  41.2628744  42.9611486  58.5607045  42.1522215  42.5623859
  58.6859100  41.0793673  44.4299555  58.4472792  40.0405656  44.6580903
  60.0192922  41.4478124  45.1331326  59.9696852  41.1403572  46.1776946
  60.8397126  40.9264106  44.6400295  60.2411875  42.8641769  45.0616133
  61.0677261  43.0810646  45.4990987  57.5374333  41.9354733  44.9416721
  57.0638596  42.8721627  44.2773048  57.0504340  41.6161350  46.1372070
  57.4158375  40.8520159  46.6873902  55.9589292  42.3914607  46.6812155
  55.9690714  43.4010271  46.2703966  54.6301957  41.7261139  46.3116320
  54.4711577  41.7435156  45.2334375  54.5969812  40.6961004  46.6666941
  53.1972421  42.5560887  47.0439706  52.2840617  41.7389479  46.5269788
  56.1373863  42.4192408  48.1929001  56.4345778  41.3854686  48.7889354
  56.0455673  43.5808022  48.7888812  56.0413987  44.4697458  48.3094427
  56.1250445  43.5810129  50.2474254  56.0012069  42.5669040  50.6273552
  57.4697964  44.1030615  50.6946363  57.6536142  43.7934824  51.7234565
  58.2481460  43.6965577  50.0488604  57.4837985  45.5041533  50.6185125
  58.3400466  45.8315520  50.9035548  54.9511089  44.3035746  50.8997257
  54.3682431  45.2588823  50.3464873  54.5938375  43.8063335  52.0849525
  55.0677312  42.9826978  52.4272219  53.5575264  44.3853604  52.8992597
  53.2159652  45.3181062  52.4504609  52.3679937  43.4159924  52.9825639
  52.7154048  42.4389765  53.3184875  51.3975933  43.9310512  53.9218746
  51.0493511  44.9079120  53.5863579  50.5520019  43.2460408  53.9838135
  51.8586067  44.0281620  54.9047977  51.6795305  43.2666859  51.6130838
  52.3943883  42.8801258  50.8866873  50.8414128  42.5753147  51.7006289
  51.3148256  44.2387944  51.2812765  54.1408411  44.6431667  54.3049143
  55.2301151  44.1904142  54.6231254  53.3923162  45.3490839  55.1303551
  52.6179072  45.8646031  54.7371250  53.6720752  45.4965785  56.5826816
  54.5611629  46.1037958  56.7527093  52.4731009  46.1982544  57.2174647
  51.5707576  45.7257456  56.8293781  52.5307067  46.0406221  58.2944669
  52.4290763  47.7020245  56.9231206  53.0702986  47.9232242  56.0698883
  51.3975075  47.9533248  56.6765175  52.8767591  48.5214366  58.1169526
  52.1781075  49.5150450  58.4639257  53.9188598  48.1467145  58.7199372
  53.9941866  44.1989582  57.3544133  53.2945802  43.1843639  57.1939290
  50.8366047  42.0777553  60.0198207  51.1334759  41.3118468  60.6074864
  49.4125162  42.4376082  60.0113950  49.0175480  42.3430440  61.0229072
  49.1788273  43.8864755  59.5229914  49.6562843  44.0145627  58.5515349
  48.1120370  44.0912122  59.4327612  49.7518119  44.9592105  60.4337740
  50.0168081  44.7007140  61.7891716  49.8073699  43.7120374  62.1975270
  50.5517652  45.7125543  62.6232292  50.7607381  45.4976749  63.6712072
  50.8142284  46.9964064  62.1004310  51.2253409  47.7748346  62.7431874
  50.5451124  47.2705715  60.7502798  50.7442837  48.2575227  60.3327175
  50.0088597  46.2480993  59.9278963  49.7866474  46.4516108  58.8803732
  48.6210108  41.4723163  59.1290659  49.1323125  41.0164716  58.0974724
  47.3847181  41.1573186  59.5322717  47.0699071  41.3871902  60.4640186
  46.4795107  40.4020359  58.6587188  47.0260002  39.6138226  58.1408692
  45.3255088  39.7610787  59.4525390  45.7310838  39.0606612  60.1826235
  44.7633437  40.5388795  59.9693527  44.4100254  39.0248715  58.5038612
  44.0036741  39.7247715  57.7737109  44.9714126  38.2465523  57.9869833
  43.2660283  38.3894742  59.2907972  42.2251451  39.0806715  59.4533080
  43.4439396  37.2189664  59.7219111  45.9716417  41.3713017  57.5722134
  45.6907283  42.5408071  57.8494074  45.8761810  40.9038386  56.3336890
  46.1888507  39.9780464  56.0782563  45.5040913  41.8254778  55.2686480
  45.9855419  42.7881573  55.4405564  45.9407870  41.2945298  53.8806973
  45.6008159  40.2610209  53.8145275  45.4227489  41.8954368  53.1332701
  47.5117880  41.3549222  53.6149560  47.9595734  40.7354344  54.3920171
  47.6583010  40.8814595  52.6441475  48.3266279  43.0052614  53.6123829
  49.1546932  43.1148129  55.2376614  49.8789896  42.3057736  55.3322617
  49.6679417  44.0728237  55.3206801  48.4117821  43.0312807  56.0308869
  44.0162150  42.1974876  55.4025540  43.1303076  41.3287803  55.4556744
  43.7694620  43.4996469  55.5410324  44.5483503  44.1406007  55.4899387
  42.4356071  44.0482938  55.7568760  41.6353277  43.3261400  55.5951789
  42.3332825  44.5814031  57.1964142  42.4424587  43.7552307  57.8989944
  43.1227026  45.3125442  57.3706222  40.9743065  45.2433765  57.3979084
  40.8645807  46.0699956  56.6959383  40.1843361  44.5126826  57.2243134
  40.8728790  45.7718139  58.8248251  40.9820569  44.9456426  59.5274062
  41.6622983  46.5029560  58.9990313  39.5641344  46.4224826  59.0576748
  38.8999087  46.4547014  58.2975002  39.2227484  46.9667172  60.2222197
  40.0430809  46.9635848  61.2690938  40.9557455  46.5382113  61.1903492
  39.7496054  47.3865918  62.1380223  38.0200321  47.5257506  60.3214976
  37.3995005  47.5264242  59.5246036  37.7327498  47.9470387  61.1933255
  42.2341480  45.2002992  54.7412871  43.2102113  45.7726438  54.2682584
  40.9831170  45.5237161  54.4147096  40.2360013  44.8678582  54.5929449
  40.6772430  46.7374306  53.6301261  41.0756899  46.6678753  52.6179496
  39.1328573  47.0251036  53.5438119  38.7341260  47.0099782  54.5581509
  38.8150572  48.3722291  52.8912256  39.2131010  48.3879366  51.8766245
  37.7349609  48.5153540  52.8594822  39.2704177  49.1743351  53.4720650
  38.4197030  45.9043188  52.7876892  38.5744745  44.9588746  53.3075767
  37.3525335  46.1206169  52.7380519  38.8228347  45.8331006  51.7774844
  41.4888313  47.9321188  54.1214129  41.5153750  48.2630657  55.3439433
  42.1701191  48.5675881  53.1651082  42.1638493  48.1653005  52.2387041
  42.9206104  49.8047566  53.3788134  42.7927667  50.4660149  52.5217879
  42.5605456  50.3034001  54.2787064  44.3978108  49.4907986  53.5450040
  45.2086798  50.4094798  53.4905202  44.7810729  48.2201607  53.7620993
  44.1125466  47.4729645  53.8840415  46.2268265  47.8805718  53.7756232
  46.7274894  48.4944488  54.5243494  46.4681503  46.4291515  54.1030511
  45.8411657  45.7804069  53.4913976  47.5153212  46.1639145  53.9575091
  46.0765990  46.0172019  55.8483531  46.3957283  44.7289424  55.7620850
  46.8173345  48.1106513  52.3829974  46.0893676  48.0401379  51.3742749
  48.1182162  48.3451683  52.3343394  48.6699796  48.4472503  53.1741226
  48.7778692  48.5823286  51.0255637  48.0978691  48.3726370  50.1998951
  49.2986848  50.0559338  50.8843945  49.8613898  50.1311842  49.9539103
  48.1321506  51.0871220  50.8699086  47.5692311  51.0127812  51.8003357
  48.5377599  52.0939688  50.7707125  47.4716675  50.8775227  50.0285224
  50.2059767  50.3338941  51.9618075  50.5298006  51.2342080  51.8832372
  49.9103085  47.5789178  50.7602980  50.4914173  46.9693007  51.7134851
  50.2461539  47.3693628  49.4771365  49.7147148  47.7720820  48.7185266
  51.3958411  46.5190599  49.1466983  51.9300525  46.2514442  50.0583447
  50.9360349  45.2388605  48.4577674  51.8238982  44.6217529  48.3200135
  50.2519982  44.7419726  49.1457327  50.2414700  45.4437973  47.1057062
  49.4185760  46.1487814  47.2237893  50.9580453  45.8397923  46.3861160
  49.6851694  44.0747144  46.5883490  50.5093446  43.4219403  46.3007378
  49.0958763  43.5927951  47.3684688  48.8266998  44.2925044  45.4170529
  48.9289510  45.1685680  44.9249588  47.9139841  43.4169365  44.9793717
  47.7360791  42.2451230  45.6113636  48.2948021  42.0225550  46.4227773
  47.0443952  41.5918999  45.2722876  47.1732439  43.7035496  43.8749126
  47.3148445  44.5772609  43.3884171  46.4850210  43.0413430  43.5463850
  52.3490951  47.2802026  48.2318132  51.8780590  48.1434314  47.4585098
  53.6518626  47.0212331  48.3438333  54.0059197  46.4305507  49.0826414
  54.6033733  47.6465868  47.4494257  54.0891067  48.4104462  46.8662037
  55.7694822  48.3063319  48.2034254  56.1911581  47.4988882  48.8020266
  56.5214758  48.6695024  47.5029164  55.3366901  49.4460325  49.1203527
  54.4462545  50.2541792  48.7969281  55.9764361  49.5736160  50.1796526
  55.1200700  46.6328584  46.4608043  55.8771518  45.7503385  46.8025157
  54.7643663  46.8275130  45.1912983  54.2486651  47.6544773  44.9261916
  55.1254148  45.8638506  44.1400267  55.4098014  44.8810172  44.5158751
  53.9237139  45.6942083  43.1601919  53.5449525  46.6868961  42.9168608
  54.3229360  44.9608391  41.8567302  54.7013873  43.9678303  42.0992360
  53.4508360  44.8686357  41.2093967  55.0980985  45.5289172  41.3424229
  52.7131141  44.9674963  43.8363100  52.3730310  45.5480576  44.6938613
  51.8992193  44.8709615  43.1177309  53.0229988  43.9767669  44.1687669
  56.3275079  46.4377389  43.3921414  56.3737164  47.6738069  43.1344386
  57.2965960  45.5818802  43.0801988  57.2833390  44.6512391  43.4724113
  58.4041139  45.9465748  42.1977715  58.3227933  46.9849812  41.8765267
  59.7971628  45.7090235  42.8244940  59.8415869  44.6916628  43.2132151
  60.9300484  45.9094436  41.7477335  60.8865509  46.9267868  41.3588614
  61.9033905  45.7380519  42.2074407  60.7849709  45.2023278  40.9310090
  60.0128608  46.6172599  44.0620784  60.1759132  47.6267678  43.6847079
  59.0864500  46.5895952  44.6357484  61.2120736  46.2045515  44.9857479
  62.1389592  46.2324320  44.4128556  61.2820819  46.8988325  45.8231080
  61.0494968  45.1952578  45.3638944  58.2262966  45.0765926  40.9368703
  58.0558028  43.8688409  41.0289942  58.2002606  45.7060342  39.7650804
  58.2341715  46.7088089  39.6493555  57.9317835  44.8790622  38.5851108
  57.4678409  43.9347559  38.8699653  57.0420263  45.5666150  37.5286756
  56.9361229  44.9230869  36.6553170  55.6190238  45.8293234  38.1648022
  55.7240710  46.4732026  39.0380064  54.9764498  46.3154736  37.4307333
  55.1738958  44.8807054  38.4649464  57.6755549  46.8113483  37.0403042
  58.6394817  46.5761901  36.5890306  57.0312825  47.2798689  36.2963276
  57.8232785  47.4962661  37.8752689  59.2174881  44.3291310  37.9548424
  60.3135529  44.7920090  38.2517784  59.0479158  43.3629251  37.0743252
  58.1264206  42.9896780  36.8964702  60.1698836  42.7984027  36.3497206
  60.9960695  42.5758643  37.0249928  59.7785893  41.5001091  35.5557196
  60.6475711  41.1315700  35.0106051  59.2921944  40.4122837  36.5491283
  58.4228896  40.7799446  37.0943211  59.0207791  39.5117174  35.9982972
  60.0906876  40.1797993  37.2537266  58.7064814  41.7799604  34.4691411
  57.8107670  42.1625637  34.9584379  59.0965551  42.5339273  33.7854190
  58.3335362  40.4262732  33.6317828  57.9429342  39.6719552  34.3148160
  57.5799462  40.6597191  32.8796496  59.2287235  40.0433174  33.1417987
  60.7129481  43.8115377  35.3629362  60.0197260  44.7880578  35.0319442
  61.9249173  43.5690193  34.8907799  62.4624176  42.7766492  35.2122488
  62.5412711  44.4795581  33.8991282  62.5226604  45.5039271  34.2711778
  63.9971069  44.0761970  33.6489961  64.4381775  44.7845010  32.9476677
  64.5367343  44.1186145  34.5950950  64.0843379  42.7566124  33.1104051
  65.0059065  42.5310004  32.9640825  61.8243566  44.5120702  32.5561340
  61.1232228  43.5559550  32.1822513  62.0559024  45.5949393  31.8053205
  62.5446704  46.3994950  32.1712374  61.5979351  45.6343008  30.4178135
  62.3540554  46.1636605  29.8380206  61.5265981  44.6047968  30.0669120
  60.2612492  46.3150113  30.2215840  59.8114115  46.4925551  29.0676419
  59.6158165  46.7093553  31.3261882  60.0307823  46.5756579  32.2372467
  58.2904105  47.3235071  31.2512505  57.8172122  47.0940492  30.2965089
  57.4054688  46.7605517  32.3899306  57.9884542  46.8760219  33.3036559
  56.5550359  47.4419496  32.4136151  56.9004888  45.3172503  32.2854884
  57.7335143  44.6509220  32.0614886  56.2562424  44.9050315  33.6467538
  55.4227901  45.5706669  33.8712209  55.8938959  43.8790666  33.5819318
  57.0016638  44.9771890  34.4387390  55.8665181  45.1797283  31.2484188
  56.2791878  45.4705052  30.2823691  55.5322968  44.1432257  31.2030343
  55.0207591  45.8233992  31.4902418  58.3790539  48.8504705  31.3777939
  59.4103151  49.3668582  31.8564942  57.3006173  49.5658621  31.0015382
  56.1409906  49.0727231  30.2325247  55.6566404  48.2625728  30.7776500
  56.4732656  48.7081780  29.2605169  55.2262782  50.3568577  30.1141836
  54.5183654  50.4018909  30.9417889  54.6812205  50.3541795  29.1702523
  56.2049112  51.4979236  30.1658094  55.6651198  52.3678480  30.5399161
  56.6905926  51.7500793  29.2231373  57.2446600  51.0581646  31.1834284
  58.2310122  51.4813440  30.9933580  56.8109701  51.3952023  32.6212562
  55.9357466  52.2494126  32.8570559  57.4995112  50.7490901  33.5705197
  58.2549985  50.1319352  33.3088746  57.1655097  50.8743990  34.9912247
  57.1005018  51.9226602  35.2828095  55.8476318  50.2052653  35.2994486
  55.9001906  49.1526555  35.0213296  55.6378032  50.2887426  36.3657993
  55.0521166  50.6906338  34.7340529  58.2817382  50.2579451  35.7931964
  58.9984384  49.3859609  35.3066389  58.4324768  50.7501011  37.0236822
  57.9518544  51.6006433  37.2799624  59.3434739  50.1552070  37.9889459
  59.8084679  49.2748577  37.5452512  60.4660733  51.1491161  38.4175593
  59.9629503  52.0156309  38.8466498  61.1085469  50.6928428  39.1706478
  61.3393898  51.6189731  37.2479673  61.7636977  50.8052102  36.4124442
  61.6450308  52.8866996  37.2122724  62.2181577  53.2438959  36.4612489
  61.3071043  53.5050644  37.9358271  58.6417662  49.6201439  39.2209925
  59.0210804  48.5750163  39.7181494  57.6555552  50.3597880  39.7178944
  57.2820419  51.1317156  39.1843077  57.0407353  50.0489401  41.0225293
  57.2283249  49.0032424  41.2663029  57.6202063  50.9299390  42.1500217
  57.0975760  50.6847496  43.0745973  59.1332115  50.7090146  42.3415258
  59.6565945  50.9544604  41.4174445  59.4956980  51.3501163  43.1450750
  59.3190663  49.6659758  42.5977064  57.4058194  52.3121064  41.8247026
  57.7645420  52.8645710  42.5230588  55.5683746  50.3562702  40.9462644
  55.1279389  51.1816437  40.1194391  54.8012040  49.7855542  41.8559844
  55.1813399  49.0607649  42.4478259  53.4165456  50.1328402  42.0090682
  53.2643012  51.1660289  41.6969115  52.5104997  49.2152479  41.1455602
  52.7520755  49.3693001  40.0938909  52.7025823  48.1763087  41.4135335
  51.1012146  49.5230874  41.3710008  50.5571585  48.9466116  40.8294490
  53.0246344  50.0251188  43.4899425  53.4483947  49.0808538  44.1728904
  52.2564832  51.0026657  43.9795544  51.9884554  51.7834460  43.3976243
  51.7172668  50.9352412  45.3521172  52.2030938  50.1168466  45.8834380
  51.9618220  52.2508126  46.1376856  51.3921912  53.0577075  45.6766632
  51.5052233  52.0733825  47.6232754  52.0747794  51.2669109  48.0851295
  51.6790639  52.9999032  48.1704847  50.4432107  51.8295201  47.6508592
  53.3578496  52.5432045  46.0909637  53.5309245  53.3555314  46.5723892
  50.2452632  50.7754044  45.2377870  49.5791526  51.5770030  44.5643619
  49.7169099  49.7490888  45.8992302  50.2881689  49.2225012  46.5445736
  48.3379645  49.3440135  45.7141663  47.7895399  50.0934743  45.1435191
  48.3146762  48.0307538  44.9418137  48.8354142  47.2552680  45.5035547
  47.2858427  47.7191973  44.7614411  49.0356235  48.2568908  43.5778068
  48.4180833  48.9713465  43.0334741  49.9945790  48.7157098  43.8186151
  49.2671138  47.0170310  42.7093018  49.0337763  45.8508884  43.1439740
  49.7031683  47.2758902  41.5573662  47.6115439  49.1561248  47.0555212
  48.1984003  48.6507142  48.0294682  46.3618767  49.5761971  47.0684461
  45.9830574  49.9658212  46.2171010  45.4853242  49.5220514  48.2714094
  46.0751619  49.3016389  49.1611335  44.8001386  50.8804932  48.4619079
  45.5953707  51.5876452  48.6977919  44.3632586  51.1346848  47.4961841
  43.7052573  50.9494727  49.5585805  43.0016432  50.1343024  49.3896860
  44.1853988  50.8192308  50.5284275  42.9378192  52.3140540  49.5355893
  43.6456042  53.1421860  49.4990282  42.2801755  52.3602627  48.6675634
  42.1171078  52.4455857  50.7596633  42.5493251  52.9527389  51.5186648
  40.8817957  51.9763654  50.9306118  40.2569786  51.2871613  49.9794387
  40.7220986  51.1092090  49.1007485  39.3204083  50.9450826  50.1404286
  40.2503866  52.1885436  52.1057493  40.7176104  52.6986830  52.8416567
  39.3139109  51.8360907  52.2431863  44.4256979  48.4316868  48.1158871
  43.7266686  48.3425684  47.1048254  44.3292456  47.5587598  49.1104978
  45.0300318  47.5272797  49.8371387  43.2546695  46.5777856  49.1452811
  43.1515649  46.0740286  48.1841893  43.6127722  45.5175446  50.2265362
  44.5348887  45.0355814  49.9017103  43.7903023  46.0467575  51.1627610
  42.5243725  44.4510077  50.4390972  41.6034152  44.9566631  50.7293574
  42.2764348  43.6270847  49.1756120  43.1968892  43.1207301  48.8849791
  41.5008926  42.8863985  49.3705969  41.9544781  44.2857875  48.3690422
  43.0425547  43.5391163  51.5969876  43.1886276  44.1391946  52.4951347
  42.3113769  42.7562849  51.7986195  43.9897052  43.0847463  51.3062079
  41.8734243  47.2299885  49.4213934  41.7094472  47.8638199  50.4573873
  40.9360497  47.1691249  48.4719692  41.1120913  46.5847742  47.6672065
  39.6506887  47.8960034  48.5425997  39.7688062  48.7843253  49.1631088
  39.1814767  48.3339015  47.1383553  39.2762025  47.4399351  46.5219542
  38.1406147  48.6572363  47.1510430  40.0489802  49.4415007  46.5610851
  40.6179624  50.2489517  47.3619115  40.1177152  49.5779238  45.3016748
  38.5378817  47.0336780  49.1267962  37.6375418  47.5223316  49.8513621
  38.6084376  45.7429493  48.8487973  39.3239716  45.3729580  48.2395216
  37.5693449  44.7879700  49.3987672  37.3085883  45.0306979  50.4289071
  36.2695135  44.7769923  48.5191320  35.7944608  45.7541979  48.6057028
  36.5638761  44.4867049  47.0631022  37.0385503  43.5093911  46.9756790
  35.6330076  44.4899646  46.4960273  37.2323568  45.2514111  46.6675556
  35.2418159  43.7879728  49.0447622  35.6622936  42.7921408  48.9046985
  35.1286419  43.9874324  50.1103639  33.9390150  43.8603088  48.3964018
  34.0513260  43.6604865  47.3307766  33.2720263  43.1188549  48.8362558
  33.5176752  44.8557795  48.5364403  38.1651758  43.4165065  49.4791048
  38.9316184  43.0521396  48.5767010  37.8631073  42.6639282  50.5766869
  37.3600823  43.0642595  51.3556607  38.2963123  41.2802450  50.6742730
  38.4622843  40.8884679  49.6707476  39.6181710  41.1359982  51.4907959
  40.2961018  41.8766320  51.0665667  39.3775349  41.4105803  52.5178300
  40.2923335  39.7573405  51.4747675  39.5723453  39.0214781  51.8328518
  40.7726084  39.3613063  50.0509126  41.4930212  40.0965040  49.6923199
  41.2436056  38.3789432  50.0859153  39.9185526  39.3302902  49.3743573
  41.5165224  39.7481346  52.4273330  41.1893563  39.9730353  53.4424593
  41.9860108  38.7646373  52.4069607  42.2356595  40.5002535  52.1028982
  37.1479547  40.5117555  51.3296169  37.1378440  40.2985079  52.5726814
  36.1594720  40.1434854  50.5252556  36.2579274  40.2506231  49.5257920
  34.9184107  39.5926971  51.0395561  34.7836361  39.9079352  52.0742348
  33.7169875  40.0717175  50.2220320  33.8264301  41.1555413  50.1839861
  33.7608994  39.6669088  49.2109426  32.3699503  39.7174554  50.8547240
  32.2578136  38.6139405  51.4441739  31.3923411  40.5188317  50.7007395
  35.0348825  38.0797492  50.9620775  34.7425038  37.4921391  49.9283188
  35.4187550  37.4551438  52.0731418  35.7591511  37.9647867  52.8759456
  35.5160337  35.9894851  52.0861968  36.0426050  35.6576496  51.1913745
  36.2835642  35.4755190  53.3322112  35.8819083  36.0002473  54.1990630
  36.0990279  34.4064392  53.4376372  37.7637758  35.7214533  53.2395031
  38.3628698  35.5018186  52.1620905  38.3665585  36.1271838  54.2524028
  34.1946458  35.2409958  51.9211308  34.2044091  34.0294298  51.5572044
  33.0617182  35.8976552  52.1454308  33.0428293  36.8671065  52.4281085
  31.8042581  35.1940520  52.0251696  31.9435345  34.1509773  52.3092406
  30.7382013  35.8084423  52.9306558  31.1106708  35.7107960  53.9503768
  30.6827469  36.8639069  52.6641610  29.3457161  35.1854215  52.8353883
  28.6816953  35.7274196  53.5087494  29.0158189  35.3297567  51.8065859
  29.3112919  33.6719839  53.1822045  30.2090645  33.1756988  53.9327420
  28.3708845  33.0249679  52.7126618  31.3143410  35.2024307  50.6025590
  30.8519696  34.1714535  50.0764983  31.4347408  36.3363369  49.9505623
  31.8123104  37.1603135  50.3962112  30.9382208  36.4551692  48.5706762
  30.1744653  35.7024378  48.3752993  30.3296777  37.8201084  48.3772818
  31.1279141  38.5539575  48.4885629  29.9363675  37.8630471  47.3616227
  29.1881258  38.1371441  49.3899069  28.5297161  37.2706252  49.4510816
  29.6343738  38.3234208  50.3667722  28.3889406  39.3479944  48.9618677
  27.7625276  39.6625742  49.7965804  29.0829596  40.1489395  48.7070660
  27.5252348  39.0829022  47.7967640  27.0758820  38.1800357  47.7418692
  27.2945000  39.9718099  46.8221079  27.9020557  41.1503447  46.8535645
  28.5335199  41.3694788  47.6107522  27.7304564  41.8232582  46.1201882
  26.4689537  39.6970672  45.7958448  26.0064308  38.8003720  45.7499067
  26.3155062  40.3887649  45.0760484  32.0375798  36.1842001  47.5024666
  31.7054538  36.0170722  46.3232577  33.2877011  36.0979405  47.9463325
  33.4281671  36.2734302  48.9310010  34.4746971  35.8269846  47.1058658
  35.3612564  35.8201858  47.7399522  34.3800739  34.4681150  46.3742573
  33.4438888  34.4432558  45.8165488  35.2176295  34.3928500  45.6807619
  34.4211385  33.3060261  47.3420450  35.3701682  33.3164979  47.8780802
  33.6012379  33.4005266  48.0540384  34.2842100  32.0051101  46.5867376
  33.3382918  31.9988148  46.0451675  35.1079100  31.9088030  45.8793886
  34.3112165  30.8571972  47.4982899  34.9851335  30.8570327  48.2505766
  33.5160393  29.7966965  47.3564018  32.5897149  29.7539401  46.3876898
  32.4895261  30.5341706  45.7542053  31.9964505  28.9417034  46.2959917
  33.6162157  28.7916715  48.2093605  34.2917569  28.8349263  48.9589425
  33.0167483  27.9852217  48.1074967  34.6083496  36.9676879  46.1298565
  34.5513951  36.7773376  44.8868875  34.7729443  38.1546595  46.7148222
  34.8101454  38.2128390  47.7224584  34.9702957  39.3970121  45.9316546
  35.1278595  39.2191653  44.8678673  33.7944428  40.3596447  46.0970583
  33.6711107  40.6012471  47.1527651  34.0677792  41.6716999  45.2908075
  34.1907699  41.4309398  44.2348678  33.2270485  42.3548329  45.4116454
  34.9762840  42.1450136  45.6632250  32.4761257  39.6875940  45.7057364
  32.3080076  38.8184260  46.3416494  31.6558541  40.3940995  45.8326382
  32.5243571  39.3709792  44.6638489  36.2024685  40.0746623  46.5085076
  36.3392876  40.2569386  47.7460495  37.1303632  40.4736106  45.6183224
  37.1082315  40.1309594  44.6684805  38.2582042  41.2626699  46.0319335
  37.9730616  41.8001019  46.9363448  39.5677783  40.4245460  46.3329483
  39.3007665  39.5783249  46.9659687  40.2156846  39.9071338  45.0275379
  40.4834088  40.7528629  44.3941615  41.1122500  39.3357581  45.2679529
  39.5087048  39.2675764  44.4991001  40.5346233  41.2252642  47.0117053
  41.3197058  40.7006681  47.1850394  38.5019767  42.3876805  45.0108542
  37.8440966  42.4443901  43.9739864  39.3701937  43.3172956  45.3539639
  39.9072110  43.2640801  46.2077085  39.5761232  44.4882914  44.4647037
  39.9003219  44.1638027  43.4759158  38.6553636  45.0644978  44.3736685
  40.6421255  45.3612392  45.0671737  40.8756431  45.3316813  46.2971871
  41.3504280  46.1111255  44.2280056  41.1944085  46.0421115  43.2325186
  42.3808313  47.0188734  44.7024027  42.1386796  47.3514000  45.7118024
  43.7712588  46.3160214  44.7298169  44.5071828  46.9211229  45.2593142
  43.6644001  45.3539455  45.2309068  44.3491915  46.0299856  43.3638699
  45.2854985  46.9101952  42.8009548  45.5782778  47.7938744  43.3679568
  45.8466548  46.6705467  41.5267017  46.5764379  47.3518582  41.0892865
  45.4408161  45.5137261  40.8143576  45.8447150  45.3233805  39.8200064
  44.5095841  44.6018193  41.3920554  44.2025726  43.7012250  40.8602904
  43.9827351  44.8799045  42.6747123  43.2787257  44.1876695  43.1365363
  42.4630361  48.2471213  43.8257668  41.9345995  48.2550020  42.6829883
  43.1314391  49.2672431  44.3762022  43.5098695  49.1897535  45.3094144
  43.3494577  50.5116064  43.6411887  42.9241418  50.4493659  42.6395242
  42.6537815  51.6528315  44.4001235  42.8359613  51.5266773  45.4673605
  43.0755069  52.6021095  44.0697919  41.2460637  51.6457012  44.1533507
  40.8329076  52.3652415  44.6362208  44.8413254  50.7737172  43.5747000
  45.5527058  50.5986011  44.5735730  45.3231408  51.2793010  42.4278553
  44.7350497  51.3986838  41.6154539  46.7038088  51.6291893  42.3216334
  47.2324006  50.9491744  42.9896675  47.2039602  51.4134239  40.8568625
  46.5904473  52.0038331  40.1763339  48.6358619  51.8423210  40.7380825
  49.2501045  51.2519961  41.4180261  48.9778565  51.6891405  39.7145220
  48.7219918  52.8980454  40.9952338  47.1794512  49.9054408  40.5476841
  47.8908215  49.4017006  41.2021296  46.1765656  49.5242830  40.7401388
  47.5854485  49.6183598  38.9650273  48.5884620  49.9988533  38.7719250
  47.5608164  48.5458961  38.7718587  46.8742068  50.1214381  38.3099338
  46.8208219  53.0809548  42.7512633  46.2502586  53.9689820  42.0701031
  47.4780427  53.3149118  43.8740874  47.9137680  52.5557529  44.3779926
  47.4978313  54.6680511  44.4847540  46.7524910  55.3032319  44.0060972
  47.2203098  54.6013209  45.9919285  47.1818555  55.6084006  46.4071538
  45.8486894  53.8945884  46.2156594  45.8865260  52.8872193  45.8010793
  45.6375669  53.8397231  47.2836096  45.0616964  54.4620339  45.7189234
  48.3042994  53.8623183  46.7571786  48.2754248  52.8155510  46.4546141
  49.2658640  54.2939137  46.4792965  48.1093060  53.9660601  48.3680325
  47.1480944  53.5342134  48.6467448  48.9103832  53.4210382  48.8673579
  48.1385313  55.0125770  48.6714269  48.7722655  55.4569770  44.2325788
  48.8395634  56.6330536  44.5825027  49.7907136  54.7805051  43.7055596
  49.7003693  53.7862943  43.5523204  51.0263764  55.4158564  43.3423681
  50.8095410  56.2181686  42.6371186  51.4779608  55.8352659  44.2414046
  52.0054574  54.4476770  42.7033579  51.6529133  53.3185223  42.3169652
  53.2313957  54.9259588  42.5589805  53.4378734  55.8747807  42.8368351
  54.3213174  54.1098093  41.9986039  55.1217221  54.0308483  42.7342782
  53.9397269  53.1148404  41.7694209  54.8744305  54.7281419  40.7339867
  54.3099928  55.6925070  40.2062899  55.9703387  54.1464007  40.2381930
  56.4031304  53.3718547  40.7207583  56.6096056  54.6486482  39.0072773
  56.3888165  55.7083332  38.8791409  58.1156785  54.4733398  39.0900794
  58.3179268  53.4148681  39.2538858  58.5384023  54.7796526  38.1332215
  58.7609104  55.3056615  40.2306505  58.6264474  56.3611981  39.9942969
  58.1953341  55.0602289  41.1295307  60.2445648  55.0220136  40.4690191
  60.9460916  54.4398365  39.6152838  60.7346374  55.4251181  41.5474516
  56.0442503  53.9194563  37.8028864  56.5338935  52.8608530  37.4563556
  54.9891836  54.4769410  37.2103780  54.6527865  55.3550892  37.5788777
  54.3054395  53.9038602  36.0515875  55.0481783  53.6605133  35.2918371
  53.5177298  52.6212399  36.4007117  52.9818465  52.1901509  35.5550815
  54.2395601  51.8977819  36.7797494  52.5204069  52.8260006  37.4738292
  51.2722675  53.3811183  37.2506557  50.6400984  53.4828281  38.4173585
  49.6194083  53.8627700  38.4613472  51.4527309  53.0640004  39.3744378
  51.2555706  53.0694730  40.3649920  52.6172300  52.6162591  38.8071648
  53.3999436  52.1893050  39.4341981  53.3236005  54.9637823  35.5609040
  53.1425710  56.0158455  36.2076160  52.6581653  54.6943710  34.4465955
  52.8360998  53.8434619  33.9324045  51.7926464  55.7062022  33.8365391
  52.0277751  56.6902739  34.2420222  52.0097822  55.7390532  32.2840129
  51.6258790  54.8097765  31.8631062  51.4500499  56.5806669  31.8759859
  53.4386777  55.8834538  31.9365548  53.8538836  56.7300051  32.4834148
  53.9674447  54.9735611  32.2204609  53.6024512  56.1220185  30.4137498
  54.6675987  56.2391235  30.2141348  53.2330352  55.2331933  29.9022607
  52.8958715  57.2919649  29.8902953  53.1088196  58.1714833  30.3388484
  52.0120184  57.2833932  28.9027791  51.6329750  56.1470764  28.3194994
  52.0228002  55.2688149  28.6306152  50.9575490  56.1691427  27.5688913
  51.4861937  58.4480813  28.4641539  51.7691428  59.3187481  28.8907441
  50.8125381  58.4428178  27.7116519  50.2933774  55.6945334  34.1596696
  49.5460659  56.5824039  33.7000519  49.8195992  54.7321847  34.9571232
  50.4603805  54.0573430  35.3496629  48.3880407  54.5679200  35.2240063
  47.8313427  54.8965232  34.3463923  47.9990644  53.1112735  35.5364203
  48.5543660  52.9316935  36.4570127  46.9302941  53.0360525  35.7368499
  48.4005225  52.0562189  34.4781840  49.4612059  52.1665807  34.2526362
  48.1285962  50.6087186  35.0141615  47.0679664  50.4974419  35.2395072
  48.4169399  49.8800498  34.2565333  48.7115000  50.4405574  35.9197251
  47.7266382  52.3115829  33.1394798  48.0161474  53.2945966  32.7680394
  48.0355456  51.5483973  32.4251793  46.6443990  52.2750969  33.2640838
  47.8870724  55.4440924  36.3435932  48.4581742  55.4797226  37.4261431
  46.8064416  56.1413342  36.0888190  46.4197713  56.2041417  35.1578837
  46.2157857  56.9596624  37.1382333  46.7222961  56.7234736  38.0740545
  46.3391572  58.5517112  36.8706551  45.8897159  59.0780142  37.7127407
  47.7833352  58.9824805  36.7191370  48.2333439  58.4569064  35.8768997
  47.8257385  60.0569624  36.5408403  48.3316868  58.7440091  37.6304780
  45.6527898  58.8623208  35.6870963  45.7185104  59.8048485  35.5170298
  44.7812707  56.5509714  37.3816002  44.0014228  56.2624891  36.4442634
  44.4409287  56.4929536  38.6609399  45.1585666  56.6313312  39.3580387
  43.1084950  56.0858071  39.1083215  43.1123166  55.8906198  40.1806958
  42.0919676  57.2278905  38.8141050  42.1635713  57.4476801  37.7488985
  41.0664779  56.9517013  39.0594426  42.4580662  58.4819558  39.5951819
  42.8577354  59.5307976  39.0107255  42.4035375  58.3808503  40.9058937
  42.6349096  59.1783041  41.4809016  42.1305592  57.5062542  41.3309412
  42.6439045  54.7472284  38.5701619  41.4405369  54.5418604  38.3176632
  43.6029291  53.8274423  38.4587736  44.5705330  54.0775804  38.6046258
  43.2838551  52.4239842  38.1497331  42.6105593  52.3657866  37.2945226
  44.5931577  51.6687257  37.8020189  45.1020769  52.2179151  37.0098753
  45.2209419  51.6519049  38.6929196  44.3303843  50.2507233  37.3437011
  44.2157286  49.9411531  35.9679347  44.3311498  50.7392648  35.2345896
  43.9528236  48.6063057  35.5348797  43.8865464  48.3691639  34.4730544
  43.8293005  47.5873886  36.4896399  43.5662891  46.2616014  36.0828128
  43.4906962  46.1695449  35.1302316  43.9175258  47.8878132  37.8685345
  43.7695296  47.0965348  38.6034331  44.1939050  49.1961626  38.2925727
  44.3059532  49.4125255  39.3549909  42.6415237  51.7272470  39.3685919
  43.1588361  51.7897180  40.4875187  41.5204275  51.0537077  39.1220964
  41.1102189  51.0708219  38.1993097  40.8358774  50.2839294  40.1773228
  41.5486261  50.0054342  40.9535501  39.7064658  51.1339752  40.8221776
  40.1656066  52.0542506  41.1832622  38.9933918  51.3699426  40.0322758
  38.9913570  50.4533026  41.9551623  38.6297190  49.4890861  41.5979434
  39.7066281  50.2960832  42.7624859  37.7795274  51.3029955  42.4869855
  38.0976091  52.3369607  42.6205481  36.9678767  51.2640554  41.7604828
  37.2747236  50.7211720  43.8758738  38.1732402  50.5635894  44.4724777
  36.6748911  51.5125133  44.3254058  36.4630225  49.4324896  43.8306611
  37.0188125  48.6989767  43.4145408  36.2020576  49.1658968  44.7692374
  35.6301775  49.5784169  43.2782359  40.2719043  49.0469620  39.5338480
  39.6295762  49.1401996  38.4826333  40.4756439  47.8790559  40.1565082
  41.0835203  47.7950372  40.9587092  39.8974119  46.6594300  39.5941442
  39.1601571  46.9420534  38.8426932  40.9578932  45.7267022  38.9268997
  40.4444985  44.8986025  38.4382526  41.5147791  46.2974932  38.1838145
  41.8492751  45.2208640  39.8953682  42.4937661  44.6504255  39.4701258
  39.0948040  45.9033747  40.6491072  39.3332579  46.0566213  41.8747472
  38.1677639  45.0802390  40.1682442  37.9740325  45.0399924  39.1778161
  37.4023250  44.2196893  41.0559308  37.8426692  44.1453586  42.0502503
  35.9560453  44.7677374  41.1934781  35.6079305  45.0147628  40.1905355
  34.9605451  43.7676794  41.8572222  35.3077727  43.5205247  42.8604413
  33.9724357  44.2238788  41.9174085  34.9045909  42.8586045  41.2584287
  35.9696562  46.0566853  41.9843315  36.5863453  46.7931608  41.4691612
  34.9524222  46.4369270  42.0778784  36.3800290  45.8703145  42.9767834
  37.4131235  42.8240999  40.4088855  37.1949443  42.6838918  39.2149305
  37.6377445  41.8020753  41.2393595  37.6993641  41.9867659  42.2304154
  37.7258849  40.4262900  40.7896541  37.5686201  40.3539500  39.7134878
  39.1119689  39.8737462  41.1187976  39.3002201  39.9986913  42.1851233
  39.1984165  38.3215387  40.7406276  39.0107201  38.1958396  39.6742931
  40.1919403  37.9432154  40.9812125  38.4515650  37.7665809  41.3083734
  40.0657195  40.6195235  40.3805666  40.9469201  40.2898306  40.5713243
  36.6763666  39.5901754  41.6054462  36.6781628  39.6345098  42.8601602
  35.8149062  38.8636979  40.9165699  35.8268128  38.9187397  39.9081415
  34.7796348  38.0617146  41.5516493  34.9478807  38.0690895  42.6285607
  33.3781247  38.5830480  41.2752026  32.6585145  37.9363832  41.7772844
  33.2165810  40.0192463  41.7851429  33.9355982  40.6666311  41.2831402
  32.2055904  40.3683697  41.5751191  33.3935002  40.0456428  42.8603654
  33.1026327  38.5812938  39.8617671  32.2149728  38.9131490  39.7083644
  34.9063637  36.6167140  41.1418712  35.2305993  36.3322131  39.9884105
  34.6695841  35.7056038  42.0974394  34.4233938  35.9971481  43.0325819
  34.8414813  34.2416228  41.8322315  35.1768198  34.0587207  40.8113524
  35.8811600  33.6455293  42.8077733  35.5258740  33.8096315  43.8250940
  36.0921951  32.1611661  42.5796569  36.4479495  31.9963029  41.5626221
  36.8308757  31.7856243  43.2877670  35.1496529  31.6331813  42.7243910
  37.2198359  34.3799546  42.6500633  37.0824836  35.4383513  42.8714969
  37.9503984  33.9568630  43.3395352  37.5785521  34.2668990  41.6270081
  33.4896330  33.5222995  41.9343049  32.7603127  33.7131493  42.9365276
  33.1305067  32.7496523  40.9112733  33.7855597  32.6006412  40.1570846
  31.8109483  32.1357887  40.8125668  31.2273904  32.3230821  41.7139438
  31.0761366  32.7577513  39.6133736  31.6421559  32.4906535  38.7209723
  30.0394576  32.4432035  39.4931389  31.0648418  34.2453730  39.6813457
  30.0995679  34.9360599  40.3999881  30.3700857  36.2351126  40.3394128
  29.7253068  36.9565154  40.8413463  31.4731847  36.4063502  39.6123267
  31.9049448  37.2924353  39.3920170  31.9382819  35.1801328  39.2038768
  32.8508903  35.1130507  38.6116377  31.8448097  30.6380176  40.6517683
  32.5882126  30.1032706  39.8097281  31.0300522  29.9527738  41.4716056
  30.5572796  30.4583411  42.2071239  30.7899667  28.4809556  41.3551754
  31.7170134  27.9596915  41.1164972  30.2624612  27.9540231  42.6961095
  30.9538819  28.2843211  43.4713126  29.2857588  28.4079731  42.8636860
  30.1340084  26.4589220  42.7444975  29.3635796  26.1289891  42.0475867
  31.0845097  25.9951522  42.4807423  29.7511367  26.0566618  44.1413590
  30.4185797  26.5414952  44.8537883  28.7243520  26.3647838  44.3385223
  29.8477008  24.6140200  44.3186051  30.7154953  24.2576811  44.6928439
  28.8827940  23.7532303  44.0304421  27.7259206  24.1773972  43.5274197
  27.5812475  25.1634638  43.3635829  26.9979746  23.5112765  43.3118334
  29.0817783  22.4547036  44.2425446  29.9631151  22.1370221  44.6199355
  28.3505584  21.7927655  44.0251641  29.7831869  28.0902000  40.2870024
  28.7012827  28.7240419  40.1321323  30.1423244  27.0547112  39.5165979
  31.0953210  26.7220219  39.5514516  29.2163362  26.4086101  38.5884691
  28.2045568  26.7678813  38.7764206  29.5814755  26.7166018  37.1414776
  30.6481947  26.6105907  36.9440669  29.0239103  26.0372364  36.4967421
  29.2034997  28.1117610  36.7257154  27.9741505  28.3507028  36.1486667
  27.2932953  27.5168584  35.9776705  27.5976156  29.6467218  35.7838569
  26.6370821  29.8406505  35.3065019  28.4864048  30.7152161  36.0438082
  28.1857064  31.7340919  35.7997335  29.7373628  30.4742661  36.6070357
  30.4477030  31.2870577  36.7583193  30.0727948  29.1874514  36.9749806
  31.0253632  28.9922174  37.4675219  29.2233492  24.8955420  38.8216683
  30.2586009  24.3292980  39.1297182  28.0617666  24.2771088  38.6851099
  27.2251044  24.8085395  38.4910041  27.9441793  22.8210690  38.8256996
  28.8931082  22.3559570  38.5586717  27.5900411  22.4213873  40.2612489
  28.4248923  22.7374029  40.8867542  26.6993731  22.9888361  40.5310866
  27.3202726  20.8835255  40.4828633  26.3562940  20.6362880  40.0382064
  28.1088344  20.3350167  39.9676861  27.3131492  20.4925156  41.9763048
  27.0972589  21.3860504  42.8361705  27.5136209  19.2844017  42.2952404
  26.8718033  22.3470784  37.8863639  25.7991088  22.9610080  37.8054376
  27.1713582  21.2743914  37.1680670  28.0741200  20.8431315  37.3063979
  26.2735345  20.6991229  36.1639218  25.2472171  20.7067980  36.5309544
  26.3384343  21.5259008  34.8681721  26.1079047  22.5503170  35.1606217
  27.3742660  21.4684330  34.5337321  25.4165746  21.1029071  33.7359500
  25.6666215  20.0895946  33.4216646  24.3820950  21.1317634  34.0781801
  25.5894703  22.0594807  32.5557466  25.2562321  23.0466792  32.8758877
  26.6508127  22.0967595  32.3102634  24.8002531  21.6318467  31.3280601
  25.2172523  20.7032572  30.9382732  23.7588602  21.4726469  31.6078018
  24.8771893  22.6942054  30.2748342  25.8420501  22.8415730  30.0151688
  24.3509433  22.4026835  29.4635513  24.4904476  23.5546268  30.6356735
  26.7634171  19.2644116  35.9710293  27.9234646  19.0481270  35.6119125
  25.8792103  18.2907131  36.2424063  24.9109122  18.5643657  36.3296551
  26.2238760  16.8647579  36.4260671  25.3007630  16.2861506  36.3917853
  27.1866597  16.3161904  35.3627961  28.0938055  16.9172930  35.4249380
  27.4120996  15.2885883  35.6479464  26.6563727  16.3421027  33.9310290
  25.6375753  15.9548634  33.9451162  26.6461685  17.3778491  33.5915817
  27.5120745  15.4975191  32.9727812  28.7698259  15.4529938  33.1504685
  26.9150950  14.8842989  32.0416455  26.8717567  16.7352996  37.7788979
  26.4336974  17.3521822  38.7537876  27.9207509  15.9335935  37.8528756
  28.1521433  15.2695796  37.1278636  28.7179532  15.9385200  39.0559941
  28.1726137  16.4570626  39.8445482  29.0181331  14.5018435  39.5274171
  28.0814602  13.9803334  39.7243184  29.5719412  13.9726801  38.7519283
  29.8497680  14.5059637  40.8021141  30.1928462  15.5665807  41.3196372
  30.1738568  13.3139023  41.3082565  30.7247482  13.2602533  42.1530880
  29.8666714  12.4711484  40.8440327  30.0010817  16.7483481  38.8054031
  31.0199438  16.5234113  39.4766910  29.9430592  17.7077653  37.8671041
  29.1456504  17.7717934  37.2505500  31.1516508  18.4896345  37.5328378
  31.9757779  18.1591776  38.1650655  31.5599279  18.3148508  36.0637552
  32.6437585  18.4306518  36.0630405  31.3052875  17.2816189  35.8277674
  30.9509882  19.2380542  35.0192496  29.9633972  18.8789473  34.7297550
  30.8673985  20.2502990  35.4148192  31.8886781  19.2432268  33.7715329
  31.9376231  18.2505152  33.3240655  31.5356245  19.9588734  33.0290355
  33.2410679  19.6351503  34.1982222  33.7189265  19.0006114  34.8220098
  33.8667213  20.7565934  33.8269470  33.2694231  21.5841855  32.9631454
  32.3549066  21.3562084  32.6001219  33.7354902  22.4335151  32.6776276
  35.0888717  21.0401038  34.3182760  35.5292798  20.4032377  34.9667684
  35.5590469  21.8882043  34.0358587  31.1095258  19.9553808  38.0359155
  30.1540832  20.6698740  37.8164867  32.1445608  20.3479321  38.7656223
  32.9440763  19.7397170  38.8702581  32.1781082  21.6550536  39.4187395
  31.2463983  22.2144154  39.3342987  32.5310464  21.4714040  40.8990897
  33.4314734  20.8617818  40.9745370  32.7752858  22.8269856  41.5681588
  31.8750822  23.4370370  41.4935161  33.0243764  22.6747876  42.6183447
  33.6004969  23.3354222  41.0695426  31.4242478  20.6393405  41.6046250
  30.5361814  21.2668650  41.6798035  31.2067838  19.7768646  40.9745899
  31.8438077  20.1457050  43.0465659  32.0609937  21.0076999  43.6773549
  31.0285442  19.5708549  43.4858745  32.7315981  19.5177010  42.9721412
  33.2611256  22.4879345  38.7237297  34.3690214  22.0153722  38.5774531
  32.9560820  23.7088312  38.2791664  32.0113467  24.0600793  38.2143644
  34.0540997  24.5487368  37.7531732  35.0042834  24.1982145  38.1561425
  34.1174236  24.4835546  36.2173014  35.0337152  24.9386558  35.8412803
  34.0998663  23.4274775  35.9480562  32.9721201  25.1388631  35.4750705
  32.9714596  26.3966521  34.8957336  33.8764376  26.9901315  35.0257208
  31.7749646  26.6347499  34.2530351  31.5273258  27.4828995  33.7637329
  30.9697124  25.5431926  34.4045102  29.6608028  25.3245756  33.9478320
  29.1676473  26.1106190  33.3759648  29.0763318  24.1119432  34.2572484
  28.0612619  23.9015319  33.9204100  29.7637962  23.1364378  35.0009761
  29.2872740  22.1859782  35.2410856  31.0674740  23.3488023  35.4533495
  31.5638147  22.5436500  35.9950841  31.6868876  24.5765024  35.1724983
  33.8760207  25.9815154  38.2828338  32.9150478  26.2791167  39.0317440
  34.8292354  26.8381057  37.9318226  35.5735788  26.5341779  37.3205288
  34.8234505  28.2260103  38.3762653  33.9361937  28.4328225  38.9746827
  36.0700245  28.4964289  39.2357983  36.9528013  28.2669691  38.6390122
  36.1339249  29.9099669  39.6911904  35.2516444  30.1400482  40.2884704
  37.0293679  30.0576092  40.2949144  36.1676843  30.5702478  38.8245936
  36.0743756  27.6497555  40.4114709  36.8583651  27.8325050  40.9345037
  34.8722138  29.1722851  37.1484062  35.5142307  28.8725049  36.1347691
  34.1911013  30.3108981  37.2836623  33.4932930  30.3956740  38.0089043
  34.3903757  31.4494432  36.3692494  35.1605137  31.1875180  35.6437276
  33.1081133  31.8266370  35.6099437  32.3029347  31.9701991  36.3304829
  33.3140968  33.1507860  34.7827327  34.1188662  33.0078374  34.0616135
  32.3929713  33.3967583  34.2544090  33.5732273  33.9655647  35.4588160
  32.7262712  30.6826744  34.6334939  32.5568595  29.7649501  35.1966847
  31.8169944  30.9515251  34.0958746  33.5363613  30.5268416  33.9210538
  34.8859347  32.5954373  37.2345086  34.3219420  32.9075527  38.3124113
  35.9900799  33.1855999  36.8050293  36.5240143  32.8079740  36.0353462
  36.4483603  34.4010650  37.4209592  35.9645408  34.5457186  38.3869267
  37.9596720  34.3639561  37.6330303  38.4396525  34.1448329  36.6792468
  38.4943403  35.7463549  38.1868392  38.0151219  35.9659510  39.1408980
  39.5736761  35.6889365  38.3276856  38.2630679  36.5378427  37.4739845
  38.3329353  33.2393556  38.6343979  38.0046163  32.2775733  38.2403376
  39.4134202  33.2231946  38.7771947  37.8433937  33.4260296  39.5902235
  36.1032353  35.5780075  36.4740669  36.3322307  35.4800568  35.2364854
  35.6006472  36.6667159  37.0537030  35.3858527  36.6556910  38.0405369
  35.3831293  37.9319944  36.2975333  35.6025658  37.7654433  35.2429208
  33.9509043  38.4108483  36.4244203  33.8376707  38.5455908  37.5001163
  33.8398651  39.3730914  35.9245616  32.8837203  37.4505969  35.9185975
  33.0267222  36.4799707  36.3935038  31.4621718  37.9879348  36.2548900
  31.3182498  38.9583902  35.7799146  30.7120790  37.2885108  35.8857455
  31.3592618  38.0937367  37.3348511  33.0769173  37.1999904  34.3938512
  34.0619469  36.7676304  34.2181214  32.3099809  36.5119560  34.0381568
  32.9942471  38.1447211  33.8564981  36.2816919  38.9768868  36.9118353
  36.3307960  39.0887068  38.1325249  37.0103800  39.7322831  36.0724098
  37.0405701  39.5185688  35.0857416  37.8204680  40.8372698  36.5643275
  37.5032571  41.0869277  37.5768231  39.3249587  40.4873116  36.5905173
  39.4722650  39.6463730  37.2681768  39.6304188  40.2002699  35.5843359
  40.1566452  41.6573178  37.0535046  40.1857664  42.4120177  36.2675778
  39.6570568  42.0668594  37.9314490  41.5865605  41.2503232  37.4234434
  41.7389616  40.1907000  38.0113877  42.5447136  41.9616399  37.1043724
  37.5468424  42.0301603  35.6774142  37.5931638  41.9060359  34.4431757
  37.1881341  43.1667636  36.2841737  36.9576788  43.2093599  37.2666070
  37.0561672  44.3968140  35.4810038  37.4059063  44.2228860  34.4633935
  35.5788312  44.8196125  35.4272841  35.4920891  45.6921404  34.7797734
  34.9988080  43.9975192  35.0079564  35.0863784  45.1355550  36.7090897
  34.1644790  45.3949671  36.6427072  37.9357170  45.4957244  36.0682951
  38.3373304  45.4143343  37.2250472  38.2158913  46.5387944  35.2904022
  37.9253850  46.5595565  34.3233064  38.9290671  47.6931427  35.8225997
  38.8189260  47.6942250  36.9070198  40.4585798  47.6955431  35.4740838
  40.8669952  48.6122242  35.8995151  40.9346627  46.8343981  35.9429916
  40.7277563  47.6688444  33.9633859  40.7444374  48.8612218  33.2057078
  40.5996980  49.8116830  33.7192967  40.9378918  48.8378956  31.8502027
  40.9087801  49.7683118  31.2831223  41.1221166  47.6435383  31.2000036
  41.3368319  47.6717648  29.8385579  41.3342636  48.5609797  29.4767707
  41.1383594  46.4406660  31.9085200  41.3142009  45.4937154  31.3981625
  40.9268415  46.4609867  33.2803554  40.9136947  45.5279132  33.8436503
  38.3293009  48.9553949  35.2138954  37.6409293  48.8881079  34.1700189
  38.6337414  50.0679955  35.8807092  38.9559441  49.9957340  36.8352055
  38.4530269  51.4040481  35.3080349  38.2865020  51.3639722  34.2315766
  37.2531199  52.1639315  35.9727684  36.3332621  51.6078668  35.7917913
  37.4834299  52.2952953  37.4914319  38.4029323  52.8516872  37.6732132
  36.6439585  52.8245318  37.9423165  37.5664714  51.3026767  37.9340537
  37.0543328  53.5689487  35.3051664  36.8467164  53.4409017  34.2428099
  36.2174656  54.0818738  35.7791502  37.9604536  54.1620318  35.4288526
  39.7653074  52.1233427  35.4866186  40.4845363  51.8943442  36.4703556
  40.1340247  52.9804956  34.5245653  39.5637597  53.1446609  33.7072851
  41.4040499  53.7045007  34.6431297  41.6149287  54.0906171  35.6403977
  42.6061622  52.7874970  34.1930061  42.6366203  51.9115110  34.8409413
  42.4468354  52.3351058  32.7217008  42.4167617  53.2105918  32.0730709
  43.2907507  51.7047398  32.4414400  41.5206080  51.7708869  32.6127899
  43.9392830  53.4403795  34.4334292  44.0545126  53.6516453  35.4965336
  44.7359911  52.7714564  34.1080098  43.9950371  54.3719582  33.8702653
  41.3110873  54.9399446  33.7422124  40.5441251  54.9401369  32.7903852
  42.0804906  55.9613456  34.0711724  42.6151110  55.9312642  34.9275458
  42.2212072  57.1319596  33.2071339  41.2387696  57.5009964  32.9126391
  42.9562901  58.2434693  33.9551877  43.9479773  57.8631807  34.2002108
  43.0502629  59.0909565  33.2761924  42.2552501  58.6907239  35.2305528
  41.0385738  58.4542893  35.3764104  42.9748673  59.2967479  36.0816309
  43.0597359  56.8219883  31.9520465  43.9834736  56.0083233  31.9742476
  42.7941463  57.5020462  30.8324870  41.9955033  58.1143741  30.7469110
  43.6979420  57.3801305  29.6927784  44.0064607  56.3404636  29.5831971
  43.0039866  57.8353517  28.3736767  42.5171569  58.7868749  28.5874517
  43.7951576  57.9893790  27.6399028  41.9719937  56.8477827  27.8129600
  41.9004024  57.0684786  26.7479394  42.4062562  55.8574427  27.9498714
  40.3139358  56.8761877  28.5394020  39.6571284  58.4260683  27.8024745
  39.6599981  58.3419503  26.7157294  38.6375862  58.5910650  28.1509148
  40.2836426  59.2658596  28.1030269  44.8755653  58.2922026  29.9845266
  44.6466925  59.4971053  30.2652986  46.1237778  57.7641720  29.9269149
  46.5532532  56.3589622  29.7810823  46.1215336  55.9382488  28.8729420
  46.2163421  55.7835010  30.6433087  48.0567808  56.4654919  29.7124518
  48.3533008  56.3289381  28.6724864  48.4762062  55.6619329  30.3178248
  48.4758745  57.7814357  30.2226347  49.2477323  58.1494808  29.5467077
  48.8647656  57.7610468  31.2406954  47.2497215  58.6868278  30.1518110
  47.0580442  59.2546458  31.0622728  47.4200361  59.6573605  28.9688721
  46.8635826  59.4267916  27.8921835  48.1930570  60.7085022  29.2030831
  48.6820801  60.7558243  30.0855321  48.3561121  61.8377229  28.2430937
  47.3904750  62.2872317  28.0116071  49.2575418  62.9105104  28.8851742
  48.8253266  63.1149919  29.8647029  50.2341341  62.4427660  29.0100051
  49.4195689  64.2550843  28.0947280  49.3209814  64.0554495  27.0277101
  48.6153265  64.9170489  28.4158142  50.7851268  64.9318194  28.3688690
  51.1777625  65.1079820  29.5531713  51.4820102  65.2705574  27.3890429
  48.9620906  61.2939643  26.9769635  49.9337198  60.5454996  27.0362770
  48.3702174  61.6242076  25.8186900  47.5514830  62.2152789  25.7984901
  48.8976049  61.1353183  24.5572306  48.6861118  61.8919999  23.8017156
  49.9762688  61.0313956  24.6746349  48.3222962  59.8124840  24.1033538
  48.5927140  59.3840071  22.9949104  47.5114632  59.1577292  24.9387160
  47.2975742  59.5335656  25.8514579  46.9651517  57.8570621  24.5830266
  47.3108738  57.5640125  23.5917157  47.4267816  56.8046410  25.5926091
  47.2104031  57.1884943  26.5895726  46.8933574  55.8661724  25.4414953
  48.8754272  56.5450107  25.4915936  49.6232189  56.9576423  26.3612077
  49.3088508  55.8843581  24.3975204  50.2930687  55.6856834  24.2882351
  48.6470403  55.5915962  23.6929652  45.4518945  57.8462457  24.4963564
  44.7427412  58.5037661  25.2866314  44.9565198  57.0667522  23.5501330
  45.5919123  56.5766573  22.9367955  43.5501138  56.9054522  23.3393880
  43.0271877  57.8494920  23.4924774  43.3207273  56.4498881  21.9081274
  42.2485195  56.4275382  21.7132683  43.7976448  57.1594823  21.2320166
  43.8744060  55.1379118  21.6949817  43.7193290  54.8688668  20.7865953
  42.9178699  55.8884872  24.2986522  43.6582966  55.1494541  25.0176038
  41.5766704  55.8383165  24.3039406  41.0262003  56.5571951  23.8563965
  40.8637077  54.7313004  24.9924349  41.1211462  54.7815021  26.0504068
  39.3404843  54.7652856  24.8579161  39.0898690  54.8138537  23.7982311
  38.9370455  53.8469054  25.2844311  38.7481444  55.9474125  25.5661198
  39.1228982  55.9335400  26.5895786  39.1271881  56.8311738  25.0529035
  37.2326042  55.9847580  25.5837051  36.5787214  54.9022426  25.5975483
  36.7067958  57.1323921  25.5972515  41.3244416  53.3910155  24.4578598
  41.6104669  52.4842651  25.2414045  41.4137108  53.2680236  23.1333097
  41.0991182  53.9948030  22.5064743  41.8848479  52.0113868  22.5558888
  41.2551998  51.1867033  22.8898643  41.8249166  52.0851467  21.0158626
  42.1985935  53.0727011  20.7453055  42.4776221  51.3217246  20.5924690
  40.3832039  51.9043607  20.4549481  39.4612362  51.3793234  21.1589199
  40.1841175  52.2692332  19.2500864  43.2923447  51.6202139  23.0313743
  43.5425144  50.4183688  23.3723282  44.2118357  52.5858270  23.0543026
  43.9690659  53.5441612  22.8475234  45.5931420  52.2914382  23.4923597
  46.0428017  51.5806619  22.7990327  46.4500701  53.5348684  23.5323035
  45.8567123  54.2811589  24.0605802  47.3557293  53.3227825  24.1005474
  46.8338617  54.0768299  22.1335123  46.7414501  53.3361896  21.1124413
  47.2685039  55.2630541  22.1432713  45.5482990  51.8014025  24.9408555
  46.2703212  50.8411343  25.3210250  44.7158414  52.4807641  25.7377640
  44.1109948  53.1964282  25.3608225  44.7077040  52.2509097  27.2206749
  45.7409897  52.2682878  27.5672551  43.9383559  53.3969067  27.9075078
  42.8879944  53.3570607  27.6189715  44.0578652  53.2419557  29.4482182
  45.1079852  53.2821710  29.7375802  43.5152503  54.0502953  29.9383767
  43.6343557  52.2844952  29.7515493  44.5889533  54.6448922  27.5274696
  44.1328114  55.3820643  27.9399161  44.1127853  50.9193996  27.5456448
  44.7229505  50.1154204  28.3372116  42.9583427  50.6453859  26.9361656
  42.4007461  51.3594295  26.4897049  42.3914828  49.2984578  27.0631279
  42.3359961  49.0379445  28.1200826  40.9838672  49.1967234  26.4581540
  41.0356216  49.5408083  25.4251844  40.6841854  48.1488982  26.4769512
  39.9434666  50.0455202  27.2338159  39.8624287  49.6222124  28.2349874
  40.3376662  51.0596184  27.2994929  38.5474552  50.0779900  26.5745231
  37.9319288  50.8375508  27.0564917  38.6479042  50.3113342  25.5145420
  37.8895103  48.7953416  26.7067439  38.3224958  48.1256146  27.3264927
  36.7730680  48.4455628  26.0747119  36.1817156  49.2859689  25.2257242
  36.5839726  50.1974078  25.0596870  35.3340916  49.0074676  24.7523636
  36.2430616  47.2476305  26.2958871  36.6904461  46.6121443  26.9409486
  35.3951712  46.9778796  25.8179592  43.3174910  48.2088913  26.5299641
  43.4105790  47.1381327  27.1276527  44.0119465  48.4369634  25.4209012
  43.9348194  49.2929698  24.8904261  44.9055181  47.3872795  24.9208016
  44.3320484  46.4722257  24.7727876  45.5632907  47.7791338  23.5810380
  45.9361227  48.7982740  23.6832568  46.4006802  47.1014011  23.4150346
  44.6067054  47.7046349  22.3955480  44.0283583  46.7808039  22.4078709
  43.9280020  48.5573525  22.3772062  45.6463685  47.7377024  20.9088160
  47.3144561  48.0448467  21.5825222  47.5850921  47.2394256  22.2652754
  48.0349768  48.0854962  20.7656390  47.3209823  48.9933239  22.1195974
  46.0171439  47.0491488  25.9004416  46.3701949  45.8817853  26.0676703
  46.6358120  48.0916253  26.4598051  46.3855966  49.0230181  26.1598067
  47.6963367  47.9452125  27.4690918  48.5261495  47.3767688  27.0491136
  48.2285065  49.3458152  27.9233047  48.6640638  49.8260104  27.0470618
  47.4541768  49.9886279  28.3419995  49.3314494  49.2590292  28.9647057
  50.6497588  49.1238507  28.5751261  50.8806135  49.1204634  27.5098588
  51.6919561  48.9913617  29.5265316  52.7267059  48.8967960  29.1972127
  51.3940087  48.9823677  30.8694432  52.1952775  48.9017264  31.6039942
  50.0594053  49.0769293  31.2941479  49.8230285  49.0293831  32.3571462
  49.0257364  49.2331291  30.3485791  47.9928431  49.3338154  30.6818862
  47.1583012  47.1580224  28.6986118  47.6869290  46.0811760  29.0290105
  46.0967776  47.6644198  29.3452101  45.6824280  48.5420103  29.0654803
  45.5680643  46.9915024  30.5579415  46.4030095  46.8706536  31.2481308
  44.4719666  47.8632632  31.2485418  43.6253044  47.9855838  30.5730414
  44.1387496  47.3718777  32.1626572  44.8856361  48.8417181  31.4926787
  45.0323972  45.5766070  30.2395428  45.2608877  44.6095658  31.0460826
  44.3511480  45.4273131  29.0998429  44.1521704  46.2221330  28.5092765
  43.8279466  44.0878168  28.6865149  43.1611556  43.7020816  29.4576811
  43.0407296  44.1879261  27.3563343  43.6591414  44.7332974  26.6434273
  42.8943861  43.1671450  27.0032201  41.6871555  44.8790946  27.4878645
  41.2180408  45.2405744  28.6012964  41.1015670  45.0632773  26.3891457
  44.9372743  43.0399505  28.5141393  44.7990218  41.8567538  28.9581390
  46.0746580  43.4468315  27.9281126  46.1652515  44.3809514  27.5548672
  47.1928653  42.5336870  27.7764535  46.9085025  41.6780121  27.1640341
  48.3779261  43.2566560  27.0954624  48.6272372  44.1379962  27.6863800
  49.6175350  42.3445449  26.9847737  49.3691103  41.4631537  26.3935594
  50.4281181  42.8893847  26.5008274  49.9323048  42.0358454  27.9816313
  47.9360393  43.6472626  25.7940618  48.6478110  44.1016876  25.3374664
  47.6142107  41.9857080  29.1327813  47.8115202  40.7432972  29.3023491
  47.7348835  42.8823655  30.1179926  47.5986832  43.8698853  29.9556548
  48.1737597  42.4431188  31.4723279  49.0330781  41.7783814  31.3840368
  48.5697249  43.6586669  32.3957018  47.7475337  44.3742773  32.3973335
  48.8607161  43.1888644  33.8740305  49.6831551  42.4735363  33.8732586
  49.1305968  44.0513507  34.4834419  47.9696518  42.7167765  34.2878409
  49.8019278  44.3330751  31.8252795  49.5872266  44.6919068  30.8186787
  50.0820003  45.1749029  32.4585133  50.6237156  43.6179720  31.7879523
  47.0960866  41.5826926  32.1485842  47.4007680  40.4788555  32.6848965
  45.8665818  42.1007265  32.1956560  45.6711214  43.0088635  31.7991945
  44.7794584  41.4029693  32.9249548  45.1280382  41.2103059  33.9395839
  43.4660057  42.2597553  32.9999330  43.1592729  42.5393323  31.9920387
  42.3383623  41.4341434  33.6728820  42.6441983  41.1545749  34.6810520
  41.4290042  42.0330595  33.7225580  42.1483585  40.5338070  33.0885922
  43.7081812  43.5236968  33.8554849  44.5008622  44.1213424  33.4053976
  42.7920252  44.1123932  33.9023279  44.0027176  43.2301227  34.8630381
  44.5043193  40.0314905  32.3044500  44.3519170  39.0142075  33.0155047
  44.5154078  39.9511632  30.9811248  44.6708088  40.7371234  30.3661318
  44.1958252  38.6510612  30.3811165  43.2933690  38.2549112  30.8466670
  43.9557717  38.7645554  28.8489757  44.8075025  39.3027810  28.4330827
  43.9403802  37.7488174  28.4538309  42.6529230  39.4863468  28.4590367
  41.8269714  38.9173321  28.8858001  42.6832530  40.4772105  28.9122159
  42.4435116  39.6278432  26.8917258  42.1488336  38.6546090  26.4991967
  41.6420436  40.3462667  26.7196320  43.7023336  40.0967746  26.1871517
  43.8219437  41.1621380  26.3841159  44.5473747  39.5526975  26.6090341
  43.6477890  39.8632163  24.6918075  42.8650766  40.3676322  24.3006226
  44.5045284  40.1902248  24.2685311  43.5373871  38.8760395  24.5090715
  45.2807481  37.6014921  30.6599332  44.9585682  36.4270701  30.8663962
  46.5560143  38.0077843  30.6240467  46.8029100  38.9563409  30.3803620
  47.6175059  37.0817058  30.9252694  47.5469236  36.2011211  30.2867650
  48.9707872  37.7641943  30.6726266  48.8589084  38.1512994  29.6598423
  49.1189825  38.5938644  31.3638471  50.1968037  36.8182618  30.7311843
  50.2280113  36.3592854  31.7193480  50.1240540  35.7269288  29.6654819
  50.0932811  36.1851557  28.6769577  51.0021762  35.0855930  29.7409182
  49.2247028  35.1299653  29.8168174  51.4888238  37.6309994  30.6332775
  51.5393980  38.3353688  31.4635819  52.3456985  36.9586082  30.6751968
  51.5034296  38.1790348  29.6911826  47.5067838  36.6477577  32.4011721
  47.7297071  35.4627083  32.7464316  47.2143062  37.6015747  33.2760858
  47.0435022  38.5552450  32.9907119  47.1453004  37.2734670  34.7387397
  48.0897445  36.8403650  35.0682049  46.8807348  38.5361676  35.5473672
  46.0814395  39.0798330  35.0437262  46.5614537  38.2736959  36.5559643
  48.1256465  39.4615718  35.6455191  49.2159167  39.0609675  35.3522684
  47.9142620  40.6878023  36.1012433  48.6874806  41.3320545  36.1859300
  46.9809043  40.9725047  36.3617980  46.0172226  36.2598850  34.9665134
  46.1810837  35.3140848  35.7673215  44.8641777  36.4756167  34.3141789
  44.6856858  37.3115812  33.7762167  43.7537710  35.5052822  34.4973838
  43.6385493  35.3291741  35.5668739  42.3995971  35.9691010  33.9259128
  42.5924862  36.2019642  32.8786937  41.6696460  35.1621264  33.9896563
  41.8430856  37.2256503  34.6397418  42.5985218  38.0102148  34.6830486
  40.6525364  37.7122746  33.8244391  39.8964283  36.9283622  33.7810713
  40.2284201  38.5998577  34.2939307  40.9793712  37.9574172  32.8139024
  41.4641550  36.9061883  36.1048229  42.3474509  36.5608963  36.6420949
  41.0759456  37.8047180  36.5844469  40.7016371  36.1274886  36.1219142
  44.1321033  34.1366140  33.9348377  43.7637041  33.0703764  34.5216556
  44.8651703  34.1254813  32.8145400  45.0919183  34.9770504  32.3210678
  45.3045737  32.8382414  32.2311670  44.4424553  32.1808613  32.1184620
  45.9514835  33.0362452  30.8581622  46.5006619  33.9777481  30.8667911
  46.6442279  32.2137613  30.6800456  44.9266027  33.0678635  29.7715856
  44.7532252  32.0249321  29.5063776  43.9898069  33.5199370  30.0973849
  45.4240520  33.8137786  28.5272963  46.6241533  34.1352594  28.4113955
  44.4922764  34.1658680  27.6458604  44.7572189  34.6598002  26.8056593
  43.5240659  33.9376779  27.8207862  46.2656536  32.1455208  33.1884489
  46.1792897  30.9045077  33.3845961  47.1495446  32.9142579  33.8272453
  47.2546916  33.8947277  33.6087907  48.0996321  32.3016833  34.7904254
  48.4832124  31.3731308  34.3676304  49.2985015  33.2358574  35.1050888
  49.8700599  33.3887844  34.1896471  48.9114179  34.1927514  35.4552604
  50.2234977  32.6185383  36.1978756  49.5822145  32.3088227  37.0230623
  50.6979185  31.7412762  35.7580595  51.3136263  33.5845933  36.7259214
  52.0123479  33.7622545  35.9084108  50.8181282  34.5190666  36.9892476
  52.0981674  33.0360523  37.9768567  51.3917579  32.9777239  38.8049171
  52.4491626  32.0345288  37.7281557  53.2994715  33.9150249  38.3866245
  52.9743939  34.8429831  38.6175315  53.7554808  33.5082185  39.1907788
  53.9543717  33.9688534  37.6196126  47.3689265  31.8543709  36.0666189
  47.6560997  30.7789272  36.6166529  46.3705914  32.6086476  36.5070594
  46.1844271  33.5214198  36.1168170  45.5267277  32.1397972  37.6298698
  46.1422780  32.0180972  38.5211532  44.4106891  33.1435531  37.9388149
  44.9659370  34.0241221  38.2619205  43.8473133  33.3808216  37.0363675
  43.4361137  32.7124247  39.0546600  42.9140299  31.8110320  38.7336918
  44.2081529  32.4218622  40.4011558  44.7301432  33.3229887  40.7230189
  43.4972555  32.1200617  41.1703386  44.9307358  31.6216837  40.2408792
  42.3365346  33.7559862  39.2309642  41.7833505  33.8628647  38.2978706
  41.6566598  33.4381826  40.0214529  42.7831476  34.7132925  39.4996658
  44.9254729  30.7635850  37.2885391  44.9146482  29.8625017  38.1449465
  44.3852096  30.6270986  36.0892072  44.3188037  31.3993379  35.4416455
  43.7855690  29.3462531  35.7065898  42.9989588  29.1274240  36.4287098
  43.1651300  29.4273655  34.3227974  43.9419521  29.6369793  33.5874679
  42.6851446  28.4785528  34.0830710  42.4223556  30.2248638  34.3032562
  44.8105218  28.1860354  35.7709060  44.4964036  27.0946618  36.3113045
  46.0137535  28.4311606  35.2357237  46.1710993  29.3065252  34.7571022
  47.0977115  27.4151562  35.2202659  46.7613607  26.5020567  34.7291278
  48.3174031  27.9776240  34.4406336  48.5719799  28.9479407  34.8669861
  49.5648390  27.0291923  34.5181377  49.3111517  26.0587607  34.0915175
  50.3904698  27.4673860  33.9574069  49.8607570  26.9015882  35.5594111
  47.9020111  28.1218659  33.0718207  48.6301698  28.4689695  32.5513361
  47.4578976  26.9669211  36.6263802  47.4909453  25.7460369  36.9204135
  47.6900810  27.9500583  37.5016841  47.6260973  28.9091917  37.1917349
  48.1010878  27.6967007  38.8603222  48.9420873  27.0114936  38.9666716
  48.4427033  29.0197079  39.5977346  47.6467120  29.7356000  39.3928067
  48.5803487  28.8201800  41.1504858  49.3765161  28.1047164  41.3562295
  48.8196380  29.7742630  41.6201312  47.6404945  28.4429727  41.5535867
  49.6686759  29.6716076  38.9728004  49.4694457  29.8904919  37.9237537
  49.8965653  30.5981160  39.4998186  50.5188765  28.9935373  39.0468316
  47.0155132  26.9229027  39.5996905  47.3196945  25.8634254  40.2301409
  45.7617128  27.3925641  39.5270301  45.5680968  28.2613646  39.0497482
  44.6596860  26.7271480  40.2383861  44.9917045  26.6392538  41.2728606
  43.3726856  27.5589134  40.2060552  43.0228483  27.6481109  39.1775817
  42.6076086  27.0689907  40.8083285  43.5710457  28.5519909  40.6092293
  44.4004412  25.2883406  39.7151707  44.1556717  24.3565173  40.5075086
  44.4736015  25.1236912  38.3986924  44.5874489  25.9289229  37.7997433
  44.2542142  23.8090017  37.7682523  43.3400461  23.3647645  38.1620153
  44.1186582  23.9417405  36.2488755  44.8913592  24.6120039  35.8723395
  44.2324091  22.9610591  35.7868963  42.7373351  24.5108486  35.9054507
  41.9961947  23.7454590  36.1356472  42.5998405  25.3614547  36.5730311
  42.5719054  24.9485888  34.5164491  43.5435660  24.7954555  33.7437947
  41.4686385  25.4262456  34.1553780  45.3660600  22.8174135  38.1998282
  45.0881422  21.6621939  38.5582949  46.6023264  23.2782726  38.2324360
  46.8392902  24.1850798  37.8560741  47.6798952  22.4346194  38.7314607
  47.6416966  21.4920174  38.1854373  49.0072404  23.0790393  38.4808441
  49.0641364  24.0198168  39.0283845  49.8034346  22.4148518  38.8170436
  49.1222283  23.2724475  37.4143216  47.4944237  22.0983892  40.2252718
  47.7005143  20.9447586  40.6403635  47.1213217  23.0885802  41.0412734
  47.1029401  24.0454898  40.7186506  46.8214738  22.8255078  42.4475061
  47.6782142  22.3308156  42.9050809  46.5260705  24.1010574  43.2217541
  45.8058752  24.6876892  42.6514200  46.0898553  23.8246200  44.1816492
  47.7593043  24.9129865  43.4508298  48.4382758  24.3530783  44.0939482
  48.2418563  25.1033388  42.4921789  47.3608838  26.4859979  44.2364775
  46.8828702  26.0111537  45.9113058  47.7162458  25.5040910  46.3975892
  46.6182925  26.9022135  46.4806138  46.0250417  25.3400428  45.8683895
  45.6767480  21.8443012  42.6247954  45.7418492  21.0046717  43.5294075
  44.6698784  21.9222833  41.7505063  44.6740284  22.6705165  41.0721043
  43.5101645  21.0359550  41.7965917  43.1172191  21.1039301  42.8110238
  42.4213828  21.4883730  40.8185521  42.7968748  21.4172419  39.7977454
  41.5453134  20.8491788  40.9282488  42.1461483  22.5210690  41.0327578
  43.8859268  19.5571009  41.5468050  43.3060633  18.6666144  42.1746156
  44.8239755  19.3115316  40.6361259  45.1787138  20.0737826  40.0764532
  45.3253584  17.9330254  40.3543586  44.4586375  17.2776143  40.2687414
  46.0929407  17.9081542  39.0239087  45.4452221  18.2656094  38.2234178
  46.9688323  18.5527945  39.0970718  46.5364398  16.4811660  38.7195445
  47.1846103  16.1231645  39.5194262  45.6610011  15.8359789  38.6457695
  47.2984297  16.4564756  37.3987922  46.6507127  16.8139323  36.5983008
  48.1743218  17.1011146  37.4719570  47.7455665  15.0844815  37.0700033
  47.5190460  14.3372578  37.7106628  48.4320489  14.7905581  35.9694346
  48.7675849  15.7196553  35.0788761  48.4989470  16.6812739  35.2312683
  49.2894845  15.4593221  34.2542869  48.7837401  13.5230702  35.7727406
  48.5273472  12.8199752  36.4509885  49.3055918  13.2694609  34.9460292
  46.2163661  17.3819179  41.4935653  46.3081536  16.1585519  41.7012304
  46.8766764  18.2880345  42.2222092  46.7384709  19.2612598  41.9901943
  47.9100459  17.9466173  43.2157826  48.4375738  17.0407863  42.9169787
  48.9335152  19.1055317  43.3154514  49.8293031  18.8251272  42.7613425
  48.4868262  19.9892548  42.8598173  49.3360208  19.4475249  44.7598052
  49.7525920  18.5788971  45.5251444  49.2134127  20.7357273  45.1270351
  49.4636355  21.0164452  46.0644175  48.8716862  21.4164178  44.4637220
  47.3641128  17.5108805  44.5832454  46.2660833  17.9116653  44.9962365
  47.9724675  16.6885629  45.2645220  51.0757355  46.5761964  35.6096356
  51.5857898  45.4576653  36.2807664  50.7558679  44.6595991  37.0703523
  49.3981656  44.9832217  37.1850901  48.8471859  46.0805841  36.5103537
  49.7127182  46.8767118  35.7295507  52.4967677  48.5866280  35.1241068
  52.2489245  49.2513988  36.1244041  51.9858345  47.3295892  34.8406875
  52.7237390  46.7189671  34.5148476  53.7013496  47.9981279  32.9968373
  53.4426915  49.0928226  34.0297595  52.8794980  50.3392231  33.3480609
  47.3830550  46.4269137  36.5920708  47.0911848  47.6250411  36.0196169
  46.9332240  46.5276709  37.8746826  46.5891116  45.4999988  35.9963465
  48.5802032  44.1397585  38.0472162  47.9914579  43.1925885  37.5116708
  48.5662494  44.4142439  39.2516069  52.6423656  45.2050716  36.2193075
  51.1715098  43.8055771  37.6007345  49.3260747  47.7505398  35.2041496
  52.7897902  47.6421988  32.5038383  54.3440637  48.3943001  32.2003605
  54.2519782  47.1496282  33.4192559  54.3927310  49.3438272  34.5161902
  51.9202551  50.1252175  32.8664649  52.7084758  51.1368026  34.0795192
  53.5708571  50.7186911  32.5889689  39.0678204  61.6162386  35.4629895
  44.3079703  15.3063277  46.3967614  32.6528817  58.6482735  26.9437669
  53.3883280  48.7866484  52.5655864  27.8927751  28.9124071  52.3917991
  29.9873118  22.9928706  56.7403955  55.1663358  23.8674912  58.4303046
  26.6814041  24.0751369  57.8342897  40.4058749  10.8787229  16.6437869
  24.1793348  59.4222676  66.8571586  65.1621261  22.5654990  23.0076378
  73.3887900  19.6522392  28.3477083  39.8736481  21.7523523   4.9137027
  56.7157352  74.7126960  34.7578938  12.9021182  33.4119481  16.1852475
  40.7025705   6.4313101  23.5706813  63.0858353  10.4154249  30.7455073
  70.6336747  17.7583753  15.9768751  56.4091621  73.2919920  42.2885810
  35.3334851  10.8328508  67.7937786  50.3960726  65.2655258  14.8853987
  33.1066925  55.5652859  -0.0231304  29.5520521  17.2602040  50.9123451
  12.7241417  45.6639954  31.5485225  41.2421216  65.6611626  27.8007804
  43.1280054  26.0014050  59.4492453  50.1836843  69.1784184  32.3326278
  65.0546629  39.0888810  69.2065016   7.0186897  20.2196798  21.2649924
  36.0587129  -1.2785918  45.0998512  23.4918491  33.2931674  12.4069894
  21.9749349  36.8924364  49.2953784  28.7653671  61.0456596  71.8040777
  65.3854080  22.4076148  49.4130924  55.7502663  61.2762315  47.1761031
  23.8141775  52.8525202   9.3807589  72.8376498  31.4715685  16.9867338
  58.7329068  61.3365045  50.2610997  69.5005653  38.9923185  16.9004667
  42.1740836   9.6859735  51.8605755  70.0996255  12.6577212  29.0724927
  25.4592437  36.7960899  51.6330734  27.8614795  75.2133365  28.6127254
  25.1191709  44.2224310  73.0329191  44.1243728  13.7692729  59.1211479
  33.6358933  31.0890349  17.4111842  52.3717312  16.4592847  73.9059333
  24.1734847  35.6672833  47.7602496  41.9274222  39.3843845   1.5033266
  75.9957558  30.8918559  12.2462900  37.9873830  71.9516044  61.1691917
  19.4006067  53.7565977  56.4669316  41.2017696  57.9468587  13.6514974
  57.6366650  34.6461704  76.9451546  45.4553179  10.8428412  25.9027195
  31.6952800   9.2863382  15.3612818  35.3039213  55.1141760  61.7340938
  51.7242502  46.4009965  69.5241791  75.3404498  63.9300617  38.9338800
  67.6030103   8.4745089  50.3726364  20.8751592  60.7543817  64.8482682
  44.8361698  38.2106304  85.8682113  44.3073169  38.4265938  86.5279419
  45.3586718  38.9042443  85.7883082  44.8350151  38.3449441  85.9537712
  36.7261306  42.1069521  84.6689581  36.1418521  42.6119552  85.0755445
  36.3231401  41.8811908  83.9286173  36.5800609  42.1477769  84.6194606
  41.1838520  38.3535173  83.1458501  41.4234524  38.5613157  82.3333844
  41.5054361  37.5492682  83.2547446  41.2675678  38.2649274  83.0419054
  34.3947902  35.9673060  82.2018625  33.6806079  35.6811240  82.6141058
  34.8791871  36.3069686  82.8425013  34.3607265  35.9754710  82.3574260
  41.5695220  44.4703014  82.5780433  41.9846368  44.1388038  81.8864929
  40.7387150  44.2371917  82.4500570  41.5083229  44.3874270  82.4571281
  44.2628610  40.7213574  81.7641635  44.1808773  40.7915761  82.6296622
  44.9008331  41.2843318  81.5725376  44.3448447  40.8152545  81.8631584
  41.3668720  40.7434028  84.7750241  42.1809359  41.0348921  84.6633013
  41.3027861  40.0893890  84.2008534  41.4771459  40.6899223  84.6739079
  37.8779444  39.4357835  84.2397443  38.2624596  39.2165542  84.9913988
  37.6291064  40.2620781  84.3698519  37.8981516  39.5255981  84.3698519
  42.8044742  43.9595828  80.1166047  43.5717728  44.0195953  79.7071898
  42.3576051  43.3876269  79.6322365  42.8518170  43.8832404  79.9843757
  38.8519343  40.2314594  81.5803157  39.1411868  41.0079477  81.8546731
  38.9391142  39.7203326  82.2817656  38.9073599  40.2706513  81.7245655
  43.6450962  35.6247857  85.8356844  43.1173980  35.7076601  85.1462552
  44.1046670  36.3665729  85.8321488  43.6352812  35.7468520  85.7331539
  35.6384027  33.8950377  80.8597739  35.2896831  34.5470102  81.3229288
  35.1580473  33.8807490  80.1321610  35.5154271  33.9893431  80.8208830
  36.0408158  37.3876018  83.7016360  36.6753237  37.9836443  83.6365822
  36.1233769  37.0879476  84.5162230  36.1464709  37.4316927  83.8119447
  40.6798252  35.2598118  85.1752466  40.0863091  35.5815114  84.6237033
  40.7173530  34.4139213  84.9673572  40.5972641  35.1822446  85.0635237
  38.6527484  35.8995368  83.2681796  39.0326449  35.9174997  82.4832911
  37.9120080  36.3449357  83.1472643  38.5996322  35.9677143  83.1345364
  39.4512238  42.7372874  84.6590586  38.6423561  42.4139548  84.6123895
  39.9587147  42.0306097  84.5918835  39.4061905  42.5854191  84.6420880
  48.0548208  15.2239695  74.7191825  48.0242213  16.0784331  74.8910094
  48.6529557  14.9234987  75.2777968  48.1385366  15.3056191  74.8266627
  35.6389033  23.8478064  75.2381987  34.8871933  23.4693602  75.0098032
  36.0875045  23.8796497  74.4900797  35.5938700  23.7963671  75.0939489
  41.0913993  24.2703433  70.6667534  40.7565361  24.9480355  70.2311756
  41.6040863  23.8808744  70.0784405  41.1179574  24.3128011  70.5154325
  40.6318284  26.2217702  76.6078645  41.0157664  26.7904601  76.0683421
  40.5677425  25.4967212  76.1284461  40.6791711  26.1993165  76.4572508
  45.8764783  17.7991997  72.9910135  45.7604309  18.5499683  73.4202273
  46.6720670  17.5415950  73.2406222  45.9769372  17.8726844  73.0914226
  37.0574529  28.7774045  78.9059615  37.7011984  29.2187209  79.2955774
  37.3830784  27.9727471  78.8189874  37.2006357  28.7239240  78.9505093
  37.7595109  21.7886020  74.2779477  38.0810950  22.3291227  73.6740785
  38.4067205  21.2182791  74.4101767  37.9021164  21.7845195  74.2086512
  39.9984752  20.1772460  74.3493655  40.4378387  19.5689560  74.7948428
  39.8489415  19.7979833  73.5779120  40.0406218  20.0310931  74.3012823
  43.5994089  18.5299641  71.3024424  43.5145384  19.3860608  71.4473993
  44.0878472  18.2543965  71.9706583  43.6582986  18.6156963  71.4226506
  44.5312522  15.1484435  72.8022159  44.0023993  15.3644069  73.4619466
  45.0537542  15.8420574  72.7223129  44.5300975  15.2827572  72.8877759
  49.9860575  20.7230740  78.1755204  49.1558278  20.9341383  78.3388621
  49.9369827  19.8967794  77.8997488  49.8567310  20.6320346  78.1592569
  36.4212130  19.0447652  71.6029627  35.8369345  19.5497683  72.0095491
  36.0182225  18.8190039  70.8626219  36.2751433  19.0855900  71.5534653
  40.8789344  15.2913304  70.0798548  41.1185348  15.4991288  69.2673891
  41.2005185  14.4870813  70.1887493  40.9626502  15.2027405  69.9759101
  47.2424890  21.3930094  78.3119920  46.8060122  21.3966837  79.0678891
  46.9087805  22.0735593  77.8799497  47.1287510  21.4942550  78.3600752
  50.3769236  18.1111014  77.2039557  51.0385670  17.5501683  77.1035465
  49.7360648  17.6163045  77.5292248  50.3798104  17.9547423  77.2371897
  41.2646044  21.4081145  69.5120480  41.6797192  21.0766169  68.8204976
  40.4337973  21.1750048  69.3840617  41.2034053  21.3252401  69.3911328
  46.6634067  19.1276396  76.9451546  46.8989656  19.2721595  76.1178396
  46.8123630  19.8918804  77.3383059  46.7199870  19.2615451  76.8815150
  48.4924524  17.9678062  74.7821150  48.8232741  18.5005703  74.1761244
  49.0657612  18.0216950  75.4383101  48.6258203  18.0547631  74.7898931
  43.9579434  17.6591705  68.6981682  43.8759597  17.7293892  69.5636669
  44.5959154  18.2221449  68.5065422  44.0399271  17.7530676  68.7971631
  41.0619544  17.6812159  71.7090288  41.8760183  17.9727052  71.5973059
  40.9978685  17.0272022  71.1348581  41.1722283  17.6277354  71.6079125
  37.5730267  16.3735966  71.1737490  37.9575420  16.1543673  71.9254035
  37.3241888  17.1998912  71.3038566  37.5932340  16.4634113  71.3038566
  37.8553510  24.5940842  73.2469860  38.1451809  24.2029824  72.5229086
  38.5856991  24.7757547  73.6875135  38.0060394  24.5634656  73.2052667
  35.7959426  26.5708225  76.3130010  35.5759721  26.2805579  77.1056677
  35.5753948  25.9123180  75.7847922  35.7307020  26.4307933  76.3518918
  37.9627381  27.9437615  75.0960702  38.6151439  27.4114057  75.3251728
  37.2652990  27.5906267  75.4828576  37.9558099  27.8127138  75.1872870
  45.9567300  20.2642029  74.4391681  46.5225332  20.9235239  74.3550224
  45.3095203  20.6091727  74.9108083  45.9446056  20.4123970  74.4964438
  42.4273878  23.2080813  73.8628760  42.1860554  22.4748674  73.4555825
  42.6075211  23.7567670  73.2095094  42.4181502  23.1803204  73.7058983
  47.1529998  20.3148256  71.2317318  46.7736806  19.5285394  71.2246607
  46.4896243  20.8635113  71.0888962  46.9988472  20.2793080  71.2098115
  39.9776906  23.8661775  75.0706144  40.7426797  23.5971419  74.7488808
  39.8754996  23.3811786  75.7876207  40.0758401  23.7551340  75.1285972
  42.4995566  20.8973959  67.0506093  43.2668551  20.9574084  66.6411945
  42.0526875  20.3254401  66.5662412  42.5468994  20.8210535  66.9183804
  45.3990096  22.5593747  71.5669004  45.4809934  23.3660734  71.2430455
  45.8839839  22.5789707  72.2909777  45.4827254  22.6814410  71.6255902
  41.0348189  17.1088518  74.5360417  41.5763735  16.6058899  74.9999038
  41.3494748  17.0553713  73.7249903  41.1612586  17.0267939  74.4844229
  39.2034639  22.5005870  71.8200445  39.2727459  21.6420408  71.9593446
  39.9823094  22.7177751  71.4919470  39.3287489  22.4058734  71.7917603
  43.5942127  24.9243571  76.0336939  43.2021918  24.6210286  75.3159805
  43.7495199  25.7612661  75.8441892  43.5595716  25.0027408  75.8993436
  43.7581801  21.4893560  75.9742969  43.3996456  21.6608203  76.7507002
  43.2720512  21.9506766  75.4170968  43.6340498  21.5832531  76.0068238
  38.5470167  17.1692725  68.5143204  38.8362692  17.9457608  68.7886778
  38.6341966  16.6581457  69.2157703  38.6024423  17.2084644  68.6585701
  44.3632432  24.3279064  79.4666973  44.1652120  24.8169878  78.7723184
  43.7420143  24.5320305  80.0451106  44.2419996  24.4295602  79.4490196
  43.3401786  12.5625989  72.7696890  42.8124804  12.6454733  72.0802599
  43.7997494  13.3043860  72.7661535  43.3303636  12.6846651  72.6671586
  42.8938868  21.1329552  71.9006547  43.6173067  21.5987665  71.7571121
  42.4539459  21.2003162  71.1504144  42.9354560  21.2113389  71.7691329
  43.1542718  25.1950257  72.0604609  42.4372028  25.0211119  71.5951846
  43.8049455  24.9602829  71.5280095  43.1444568  25.1346050  71.9133826
  38.4355880  26.4312016  78.4894757  38.0216278  25.7686146  78.0998598
  39.1203254  26.5789874  77.9690451  38.4754251  26.3552674  78.3551254
  41.8021174  25.5902101  79.2418373  41.4037457  25.7004371  78.4739193
  41.1872393  25.7984167  79.8244933  41.6520063  25.6375669  79.2149673
  49.5363017  20.1654068  72.6261464  49.9196622  20.9145424  72.8559561
  48.7407130  20.4119887  72.3673453  49.4756799  20.3123762  72.6219037
  38.3478308  12.8373499  70.2021843  38.7277273  12.8553129  69.4172957
  37.6070904  13.2827488  70.0812690  38.2947146  12.9055274  70.0685411
  39.1463062  19.6751006  71.5930633  38.3374385  19.3517679  71.5463942
  39.6537971  18.9684228  71.5258881  39.1012729  19.5232322  71.5760927
  59.0280792  30.7425003  74.7191825  58.9974796  31.5969639  74.8910094
  59.6262141  30.4420295  75.2777968  59.1117950  30.8241499  74.8266627
  52.2280477  29.8300654  79.4744755  51.3718372  29.9909152  79.5253872
  52.2748131  28.9592718  79.4949816  52.1079588  29.7251456  79.4850821
  46.6121617  39.3663372  75.2381987  45.8604516  38.9878910  75.0098032
  47.0607628  39.3981805  74.4900797  46.5671283  39.3148979  75.0939489
  52.0646576  39.7888741  70.6667534  51.7297945  40.4665663  70.2311756
  52.5773447  39.3994052  70.0784405  52.0912158  39.8313319  70.5154325
  51.6050868  41.7403010  76.6078645  51.9890247  42.3089908  76.0683421
  51.5410009  41.0152520  76.1284461  51.6524295  41.7178473  76.4572508
  55.0732298  31.8892698  82.1176407  55.6188258  32.5677784  82.1770376
  55.0149174  31.7480159  81.2577988  55.1448212  31.9684699  81.9988467
  48.1906373  39.3781764  77.5044759  48.2916736  38.5682118  77.8141887
  47.5948118  39.2838710  76.8744438  48.1178911  39.2446792  77.4570998
  56.8497367  33.3177305  72.9910135  56.7336893  34.0684991  73.4202273
  57.6453253  33.0601258  73.2406222  56.9501956  33.3912152  73.0914226
  48.0307112  44.2959353  78.9059615  48.6744568  44.7372517  79.2955774
  48.3563368  43.4912779  78.8189874  48.1738941  44.2424548  78.9505093
  41.3871417  35.4002050  77.1297093  41.1521602  34.5669703  77.0229362
  41.5257058  35.6806716  76.3158294  41.3727080  35.3185554  76.9939448
  43.6861505  27.5687781  80.0281401  43.0666536  26.9780428  79.8591415
  43.5845368  28.1599216  79.3945724  43.5799180  27.5691863  79.9086390
  48.7327692  37.3071328  74.2779477  49.0543533  37.8476535  73.6740785
  49.3799789  36.7368099  74.4101767  48.8753747  37.3030503  74.2086512
  50.7829400  29.3087323  74.3613864  51.4809565  29.4875450  74.8535327
  51.0981733  28.7857662  73.7384253  50.9324737  29.2581095  74.3415874
  43.4130638  31.1140063  82.2724970  43.2889334  31.7002508  82.9074788
  44.0648922  30.6200258  82.5737245  43.4904287  31.1278867  82.4110899
  50.9717336  35.6957768  74.3493655  51.4110971  35.0874868  74.7948428
  50.8221998  35.3165141  73.5779120  51.0138801  35.5496239  74.3012823
  48.4388979  34.2901780  81.5512481  49.0837981  33.7974223  81.2323429
  48.6790756  34.4326566  82.3778559  48.5699564  34.2379222  81.6262014
  50.9775070  37.1356685  81.2019373  51.2598313  36.3408091  80.9806129
  51.7061230  37.6137273  81.2224434  51.1264634  37.0891282  81.1722388
  48.9556264  24.6779719  78.4435138  48.6259594  25.1290863  77.7738837
  48.2801266  24.5995883  78.9908145  48.8066700  24.7330855  78.4258362
  54.5726672  34.0484949  71.3024424  54.4877967  34.9045916  71.4473993
  55.0611055  33.7729273  71.9706583  54.6315569  34.1342270  71.4226506
  56.1632672  20.6665242  76.6884749  55.8486113  21.3568721  77.1205171
  55.6459613  20.6110025  75.9870250  56.0397142  20.7600131  76.6481698
  55.5045105  30.6669743  72.8022159  54.9756577  30.8829377  73.4619466
  56.0270125  31.3605882  72.7223129  55.5033558  30.8012880  72.8877759
  60.9593158  36.2416048  78.1755204  60.1290861  36.4526691  78.3388621
  60.9102411  35.4153102  77.8997488  60.8299894  36.1505654  78.1592569
  47.3944713  34.5632960  71.6029627  46.8101928  35.0682991  72.0095491
  46.9914808  34.3375347  70.8626219  47.2484017  34.6041208  71.5534653
  42.9488742  40.2787721  78.4053299  42.4656320  41.0038211  78.3812883
  43.7612060  40.5763851  78.5163457  42.9979489  40.4290075  78.4180578
  49.0202896  39.0719902  81.0103113  48.5029837  38.7127317  80.4064422
  49.7177287  38.5482076  81.0209180  49.0468477  38.9417590  80.9233372
  51.8521928  30.8098612  70.0798548  52.0917931  31.0176596  69.2673891
  52.1737769  30.0056121  70.1887493  51.9359085  30.7212713  69.9759101
  47.1612218  22.7392008  73.9258086  47.9158186  23.1070325  73.6875136
  46.9839752  23.1131562  74.6937266  47.2466696  22.8490196  74.0042975
  45.8032939  40.7943897  78.5573579  46.5053518  40.2795886  78.6146335
  45.7230422  41.1218048  79.3620454  45.8956699  40.7658123  78.6846371
  45.5169282  25.1462327  70.6236199  45.3344856  25.3634208  69.7977192
  46.3794895  25.2601339  70.6794813  45.6173872  25.1952225  70.5090686
  45.1283714  36.9850249  78.0659187  45.9672614  37.2173182  78.1132948
  45.1595484  36.1154560  77.9966222  45.2565432  36.8907195  78.0623832
  45.7536417  37.4051124  82.3672492  46.2934642  37.2622255  83.0375865
  45.0706364  37.8047875  82.7356519  45.7328571  37.4430795  82.5206914
  51.1969002  22.1488737  73.6585223  51.9255162  21.9704692  73.2123379
  51.2863895  22.9906817  73.8692401  51.3175664  22.2472616  73.6238740
  55.1777302  33.0842125  77.5617517  55.9334817  33.5173639  77.6006426
  55.2839627  32.4346895  78.1352153  55.3047473  33.0519609  77.6515542
  58.2157473  36.9115402  78.3119920  57.7792705  36.9152144  79.0678891
  57.8820389  37.5920901  77.8799497  58.1020093  37.0127858  78.3600752
  41.1573563  33.6251415  82.5206914  40.8911978  32.8090532  82.6797904
  41.1712127  33.6704571  81.6502429  41.1198285  33.5108320  82.4160396
  45.0631309  28.4236499  69.1358672  44.3489487  28.1374679  69.5481105
  45.5475278  28.7633125  69.7765060  45.0290673  28.4318149  69.2914307
  61.3501820  33.6296322  77.2039557  62.0118254  33.0686990  77.1035465
  60.7093232  33.1348353  77.5292248  61.3530687  33.4732731  77.2371897
  52.2378627  36.9266453  69.5120480  52.6529776  36.5951477  68.8204976
  51.4070557  36.6935356  69.3840617  52.1766636  36.8437709  69.3911328
  41.5666976  34.4110194  79.8018658  41.3842549  34.3857080  78.9490950
  42.3016645  34.8809132  79.8407567  41.6481040  34.4771557  79.6816577
  59.4657107  33.4863370  74.7821150  59.7965324  34.0191010  74.1761244
  60.0390195  33.5402258  75.4383101  59.5990786  33.5732939  74.7898931
  54.6788996  31.3328273  75.4644730  54.7735851  32.0717567  75.9184355
  54.0547840  30.9045748  75.8979294  54.5998026  31.3789594  75.5952877
  41.5337887  31.2903695  79.9517725  42.1111389  31.1540146  80.5909970
  40.8351948  30.8339479  80.2063309  41.5158908  31.2025961  80.0840014
  54.9312018  33.1777013  68.6981682  54.8492180  33.2479200  69.5636669
  55.5691738  33.7406757  68.5065422  55.0131855  33.2715984  68.7971631
  48.2905189  32.9437751  78.1656208  48.0324433  32.1109486  78.1387507
  48.3453672  33.1695364  77.3248708  48.2604967  32.8535522  78.0376345
  53.3706239  25.0466201  78.2660301  52.6662566  24.5575387  78.4244220
  53.4191213  25.0588676  77.3948745  53.2736290  24.9755849  78.1599640
  47.2639901  30.4975513  78.6521103  46.6889492  30.6567682  79.2885064
  46.8875577  29.8610922  78.1889553  47.1242713  30.4273326  78.6775661
  50.9313189  28.9698863  83.5113481  50.5427622  28.5453080  82.8565672
  50.2667888  29.2181012  84.0190508  50.7760117  28.9437584  83.4901349
  60.5736459  28.7273867  76.2861311  60.3173023  27.9153809  76.0959194
  61.4165773  28.7351434  76.0591499  60.6602484  28.6085865  76.2246128
  37.0096720  30.1415588  76.6665543  37.0956972  29.7647456  77.4479073
  37.6372517  29.7676034  76.1885502  37.1153271  30.0301070  76.7111021
  52.0352128  33.1997467  71.7090288  52.8492767  33.4912360  71.5973059
  51.9711269  32.5457329  71.1348581  52.1454867  33.1462662  71.6079125
  47.9060036  36.6718985  76.8362600  48.5433983  36.4330732  77.3814394
  48.3315108  36.8756143  76.1015761  48.0636202  36.6669995  76.8079758
  42.5972678  38.9107321  80.7196904  42.6376824  39.1822172  79.8916684
  43.1567202  39.4349229  81.1354692  42.6856024  39.0283076  80.6588792
  48.5462851  31.8921274  71.1737490  48.9308004  31.6728981  71.9254035
  48.2974471  32.7184220  71.3038566  48.5664924  31.9819421  71.3038566
  50.2881508  37.1491407  78.5156386  50.3620516  36.9866579  79.3698236
  51.1051014  37.3381597  78.2716868  50.4197867  37.1528150  78.6054412
  44.0487265  37.4949270  75.5450830  43.2225382  37.7411007  75.4185109
  44.1099256  37.4161351  76.4112888  43.9361432  37.5194219  75.6539774
  46.2663288  23.5618211  76.5046270  45.3985714  23.6340810  76.5703879
  46.5538493  24.3640290  76.6934245  46.1803037  23.6912358  76.5421037
  48.8286094  40.1126150  73.2469860  49.1184392  39.7215132  72.5229086
  49.5589575  40.2942855  73.6875135  48.9792978  40.0819964  73.2052667
  49.4180839  34.9143896  84.3322990  48.9192533  35.6259664  84.4107879
  50.2281063  35.2344563  84.2941153  49.4636946  35.0670745  84.3379559
  46.7692009  42.0893533  76.3130010  46.5492305  41.7990887  77.1056677
  46.5486531  41.4308488  75.7847922  46.7039603  41.9493241  76.3518918
  45.6808956  34.1766849  78.5785711  45.3922205  33.5504320  79.1131439
  46.5492305  34.1187137  78.6450392  45.7669208  34.0754393  78.6676666
  56.4686854  29.3201633  78.8967693  56.1251620  28.5991968  79.2474943
  56.5679897  29.1115484  78.0546051  56.4328897  29.1825836  78.8239373
  48.9359965  43.4622923  75.0960702  49.5884023  42.9299365  75.3251728
  48.2385574  43.1091575  75.4828576  48.9290683  43.3312446  75.1872870
  45.8841230  35.8162100  74.5028076  46.6387198  36.1975139  74.7163539
  45.2911843  36.2673244  74.9574773  45.9077943  35.9390928  74.6010955
  56.9299883  35.7827337  74.4391681  57.4957916  36.4420546  74.3550224
  56.2827787  36.1277035  74.9108083  56.9178640  35.9309278  74.4964438
  47.2039456  36.9870662  79.8768192  46.6820210  37.1270953  80.5620056
  47.5913477  36.2281326  80.0670309  47.1843157  36.8956185  80.0069268
  44.1930640  27.0376470  73.9463146  43.9055436  26.6677741  73.2095094
  44.8801109  27.5071326  73.6846851  44.2519538  27.0523440  73.7978222
  53.4006461  38.7266121  73.8628760  53.1593137  37.9933981  73.4555825
  53.5807794  39.2752978  73.2095094  53.3914085  38.6988512  73.7058983
  48.6305782  34.0174681  75.2749683  48.4348565  34.6249415  74.6809986
  48.8540128  33.3242625  74.7941357  48.6340423  34.0052206  75.1165764
  47.0284312  30.9029419  75.3930551  47.7506964  31.0670577  74.9334357
  46.5492305  31.6239083  75.2869891  47.0648043  31.0327648  75.3096165
  54.9877820  27.2393217  80.7727236  54.1488920  27.2654496  80.5365499
  55.0582187  27.8863953  81.3532583  54.8746213  27.3389343  80.8236353
  44.6791929  33.3087491  84.4984691  45.1913026  33.5871744  83.8493451
  44.3928271  34.0476785  84.8647504  44.7126792  33.4589845  84.4574569
  53.4347098  24.1378594  75.5054852  54.1373451  23.9386343  75.0274810
  53.1691287  23.3654537  75.8123695  53.4993730  23.9941560  75.4800294
  58.8635343  32.4461204  78.0588478  58.7769318  32.6016630  78.9123257
  58.4085823  33.0899280  77.6847883  58.7838600  32.5636959  78.1295585
  41.7658835  27.8157683  74.7948427  41.8674972  28.6183844  75.1229403
  42.5614722  27.6145019  74.4971508  41.8986741  27.9043582  74.7983783
  52.7361160  29.7671951  76.6814037  52.4895874  29.6867702  77.5150826
  53.0646283  28.9825419  76.4876565  52.7482403  29.6398217  76.7761560
  56.6309208  36.4755311  80.4700819  56.4923568  37.1736356  80.9749561
  55.8509206  36.3203967  80.1137000  56.4952435  36.5555477  80.4927093
  48.6958187  32.5028670  86.0937020  48.8401563  33.0829878  85.4580130
  49.0433835  32.8804966  86.7986875  48.7685648  32.6449374  86.1036015
  50.8678104  31.7018838  83.8762152  50.1201418  31.8949853  83.4710430
  51.0219629  30.8764058  83.6386273  50.7800532  31.6083950  83.7807558
  47.7685942  40.6931442  82.9598047  47.9175506  40.1334357  82.3071452
  48.5485944  40.7723443  83.3430566  47.9060035  40.6217007  82.9194996
  58.1262581  35.8333564  71.2317318  57.7469390  35.0470702  71.2246607
  57.4628827  36.3820421  71.0888962  57.9721056  35.7978388  71.2098115
  50.9509489  39.3847083  75.0706144  51.7159380  39.1156727  74.7488808
  50.8487579  38.8997094  75.7876207  51.0490985  39.2736648  75.1285972
  48.9862259  27.5871493  81.6099380  48.1958334  27.4062953  81.9316716
  49.3822882  26.8098445  81.5929674  48.9279135  27.4458954  81.6551928
  53.4728150  36.4159267  67.0506093  54.2401135  36.4759392  66.6411945
  53.0259459  35.8439709  66.5662412  53.5201577  36.3395843  66.9183804
  54.3705945  35.2213923  79.3358826  53.6950947  34.9899155  79.8372213
  54.3798322  34.6135106  78.7100931  54.2724450  35.0972848  79.3174978
  51.5000089  30.0631752  86.0922879  51.4359231  30.9241708  85.9643015
  51.6397277  29.7463745  85.2918430  51.5115559  30.1431919  85.9551092
  56.3722680  38.0779055  71.5669004  56.4542517  38.8846042  71.2430455
  56.8572422  38.0975015  72.2909777  56.4559838  38.1999718  71.6255902
  50.1819183  32.7563891  80.2339082  49.7581432  32.9568390  79.4978100
  50.0064038  31.9092739  80.3463381  50.0930064  32.6612673  80.1412772
  45.4701628  33.2515943  75.6667054  45.6266247  33.1862745  76.5223046
  45.8102221  34.0264495  75.4545734  45.5434863  33.3565141  75.7621648
  52.0080773  32.6273826  74.5360417  52.5496318  32.1244207  74.9999038
  52.3227332  32.5739021  73.7249903  52.1345170  32.5453247  74.4844229
  50.1767223  38.0191178  71.8200445  50.2460043  37.1605716  71.9593446
  50.9555678  38.2363059  71.4919470  50.3020073  37.9244042  71.7917603
  53.1570042  27.5210131  84.5882718  53.3712012  26.8821045  84.0346072
  52.5403941  27.9655955  84.1590580  53.0975372  27.4920274  84.4433149
  54.5674710  40.4428879  76.0336939  54.1754502  40.1395594  75.3159805
  54.7227782  41.2797969  75.8441892  54.5328300  40.5212716  75.8993436
  42.0435890  30.4350893  75.9827821  42.4234855  30.8535438  75.3188089
  41.4691255  31.0164349  76.2896665  42.0147215  30.5828752  75.9304562
  54.7314385  37.0078868  75.9742969  54.3729040  37.1793511  76.7507002
  54.2453096  37.4692074  75.4170968  54.6073082  37.1017839  76.0068238
  52.5484771  20.6310066  79.5770061  51.6778329  20.6048788  79.5303370
  52.8025112  20.4587259  78.7595906  52.4578331  20.6020210  79.4490197
  49.5202750  32.6878033  68.5143204  49.8095275  33.4642916  68.7886778
  49.6074549  32.1766765  69.2157703  49.5757007  32.7269952  68.6585701
  49.5733911  22.6416295  81.0343531  49.0572400  21.9496486  81.1595110
  49.0127840  23.3087072  80.9806130  49.4140425  22.6379552  81.0449597
  57.6176124  29.7471910  81.4876086  57.1903732  29.6598258  80.7324185
  56.9802177  29.8549685  82.0730930  57.4605732  29.7504570  81.4621527
  45.6866691  32.0011298  80.6143316  44.8454698  31.9015172  80.8222210
  45.8956699  32.7706778  80.9657636  45.5931384  32.1003341  80.6970631
  43.1642258  29.6230835  78.4428066  42.7698956  29.6973847  77.6678176
  42.6082375  30.0088781  78.9936428  43.0245071  29.6912609  78.4095726
  54.8007205  22.6012129  78.1231945  55.0056798  22.5334437  78.9688942
  54.4733629  23.4070950  78.0553123  54.7822453  22.7098069  78.2391600
  49.4983356  29.9292697  79.8640913  49.1946494  29.3748685  80.4651321
  48.7962777  30.1084907  79.3768947  49.3499566  29.8737479  79.8810619
  48.5549453  27.2393217  74.4285615  48.8309188  26.5212129  74.0163183
  49.1548123  27.8378137  74.2206721  48.6842718  27.2213588  74.3366376
  47.5601707  37.1442418  84.5713011  47.4522062  37.1544480  85.4375069
  47.7697489  37.9697198  84.3817965  47.5751818  37.2683493  84.6717103
  58.0540893  23.1543893  77.6034711  57.4415206  23.6414295  77.9888443
  58.1505068  22.4787384  78.1472362  57.9778790  23.1262202  77.7413569
  52.0559974  24.9106734  72.7032210  52.5103720  25.0817295  73.4280055
  52.5300020  24.2974845  72.3029986  52.1928294  24.8457619  72.7505972
  45.5775499  34.3955060  82.0334949  44.9863432  35.0364558  82.0037964
  46.3396523  34.8192677  82.0066248  45.6023760  34.5530899  82.0250096
  55.3365015  39.8464372  79.4666973  55.1384704  40.3355186  78.7723184
  54.7152726  40.0505613  80.0451106  55.2152580  39.9480910  79.4490196
  49.3972994  31.6149269  73.8077217  50.1415039  32.0023545  74.0460167
  49.5433690  30.7706694  73.9717705  49.5283579  31.5479741  73.8671187
  51.3152569  23.4099528  78.8409079  50.4688614  23.5822335  78.7150429
  51.3123702  22.6048871  79.1774907  51.1899719  23.3160556  78.8720206
  52.3850870  27.1874742  79.7071137  51.9110824  26.6616504  80.2176448
  52.7569005  26.6404215  79.1385998  52.3700759  27.0290739  79.6986284
  58.6487600  32.2477118  81.1177917  58.4085823  31.4083533  81.1220344
  59.1279607  32.3277284  81.8418691  58.6839784  32.1358517  81.2252719
  54.3134369  28.0811297  72.7696890  53.7857388  28.1640040  72.0802599
  54.7730077  28.8229168  72.7661535  54.3036220  28.2031959  72.6671586
  60.6492787  29.0278575  79.0707176  60.4102557  28.9874409  78.2327961
  60.8126688  29.8749727  79.1972897  60.6383091  29.1470660  78.9660658
  46.1225686  28.0088698  81.7365101  45.4978756  28.0207090  81.1291053
  45.7871281  28.4848873  82.3856341  45.9811178  28.0807215  81.7421669
  46.3067434  26.3513816  67.7937786  45.9580239  27.0033541  68.2569335
  45.8263880  26.3370929  67.0661657  46.1837678  26.4456870  67.7548877
  42.8351361  36.0689158  83.1768865  42.3051286  35.3781597  83.2263840
  43.1076455  36.0599343  82.3481573  42.7976084  35.9656290  83.0616281
  53.8671452  36.6514860  71.9006547  54.5905651  37.1172973  71.7571121
  53.4272043  36.7188470  71.1504144  53.9087144  36.7298697  71.7691329
  53.0357607  33.5112402  83.1507236  52.4214600  32.9670453  83.4455872
  53.5524892  32.9976639  82.6713053  53.0213269  33.3548811  83.1231465
  52.2753904  34.5816672  80.8851535  51.8481512  33.9566391  80.4516971
  52.2678848  34.2991594  81.7110542  52.2113045  34.4469453  80.9431363
  50.6039614  25.4585427  81.0994069  50.6282101  24.9245539  80.4106849
  50.8551087  24.9502736  81.7619660  50.6449532  25.3046331  81.0958714
  38.1147204  32.7416922  80.5337213  38.0090653  32.6963766  79.6689297
  37.3647423  33.0870702  80.8151498  37.9882806  32.7857830  80.4474543
  46.8840936  24.1856245  80.4799813  46.9239308  24.6865452  81.1934521
  46.0590601  24.2766639  80.2105736  46.7680462  24.2738061  80.5450352
  48.3055299  30.7016755  82.7773712  47.4747229  30.8690573  82.5708961
  48.2506816  30.3252706  83.5622598  48.1744714  30.6706486  82.8622241
  46.6791343  28.9772347  73.3063830  46.8194304  29.4744811  74.0092472
  47.1773876  28.2758641  73.4478044  46.7732424  28.9474325  73.4315409
  46.7091566  29.8439458  70.6356407  47.3436645  30.4399883  70.5705869
  46.7917176  29.5442915  71.4502277  46.8148117  29.8880366  70.7459494
  48.2870548  25.7753433  70.6101849  48.6086389  25.2956515  69.9561111
  48.5497492  26.5853079  70.4192661  48.3736574  25.8243331  70.4857341
  53.6829703  25.1625627  82.9725328  54.1084775  24.7098153  82.3608854
  53.0686696  24.6085698  83.2490116  53.6558349  25.0139603  82.9230353
  43.2144553  32.0407298  73.9045953  43.7236783  32.6371806  74.2857259
  43.6878826  31.7733272  73.2222373  43.3587929  32.0893114  73.8600476
  54.1275301  40.7135565  72.0604609  53.4104611  40.5396427  71.5951846
  54.7782039  40.4788137  71.5280095  54.1177152  40.6531357  71.9133826
  52.1223926  21.6340727  76.3815905  51.4792244  21.4838373  76.9501044
  51.7823333  21.3883072  75.6165010  51.9769004  21.5752849  76.3518920
  56.7123273  29.5900154  75.8045914  56.0414463  30.1329856  75.6758979
  57.4063023  30.0595009  75.5627608  56.7152140  29.7398425  75.7501441
  50.7610006  41.7296866  81.0357672  50.5375661  40.9715695  81.4041698
  50.2719850  41.7594887  80.3138112  50.6553455  41.6219090  80.9834413
  56.8751400  26.0456037  78.7136287  57.2279010  25.6185760  79.3882086
  56.0166202  25.9606881  78.8437363  56.8000845  25.9700778  78.8331297
  45.5735085  28.6763557  76.7719133  44.8547074  29.0927689  77.0391997
  45.9447447  29.2417796  76.2210772  45.5227017  28.8212838  76.7301940
  54.8734666  29.3091406  82.6621129  54.8532593  29.1274701  83.5155908
  54.9213867  30.1803424  82.6380713  54.8769307  29.4107944  82.7844424
  49.4088463  41.9497324  78.4894757  48.9948862  41.2871454  78.0998598
  50.0935838  42.0975182  77.9690451  49.4486835  41.8737982  78.3551254
  52.7753757  41.1087409  79.2418373  52.3770041  41.2189679  78.4739193
  52.1604977  41.3169475  79.8244933  52.6252647  41.1560977  79.2149673
  51.3481660  27.7161557  72.1092513  50.7546499  28.0378553  71.5577080
  51.3856937  26.8702652  71.9013619  51.2656049  27.6385885  71.9975284
  54.2239476  27.6741061  75.5394263  53.9953169  27.6973763  74.6972621
  54.4837552  26.8498528  75.6589274  54.2285664  27.5557141  75.4319461
  47.2784239  26.2117608  76.8348459  47.7541605  26.5734687  76.1998640
  46.7772838  26.8674075  77.1148602  47.2749598  26.3611796  76.7825200
  60.5095600  35.6839376  72.6261464  60.8929206  36.4330732  72.8559561
  59.7139713  35.9305195  72.3673453  60.4489382  35.8309069  72.6219037
  49.3210892  28.3558807  70.2021843  49.7009857  28.3738437  69.4172957
  48.5803488  28.8012796  70.0812690  49.2679730  28.4240582  70.0685411
  56.9496182  26.6640999  75.7897421  56.9490409  26.5089655  76.6481698
  56.7452362  27.5103986  75.7338807  56.9195960  26.7661619  75.9085361
  39.0113453  30.0880783  80.2056238  38.8335214  29.6357392  80.9311154
  38.7232475  30.8906944  80.3894716  38.9426406  30.1403341  80.3399741
  54.6737034  31.3438500  79.4433628  55.1690700  30.6261495  79.4037649
  53.8636810  31.0409298  79.3288115  54.6280928  31.1936147  79.4207354
  50.1195646  35.1936314  71.5930633  49.3106969  34.8702987  71.5463942
  50.6270555  34.4869536  71.5258881  50.0745313  35.0417630  71.5760927
  40.7485923  32.6208507  77.3177997  39.8831443  32.6094197  77.2060768
  40.8484739  32.4338730  78.1649136  40.6360090  32.5914568  77.4266941
  56.7388853  34.0942188  82.1310757  57.1643925  33.5716610  81.5781182
  56.3745773  34.6923025  81.6099380  56.7475456  34.1052415  81.9719767
  46.3742933  42.3906405  80.8908103  46.6889492  43.2042794  80.8985884
  46.7836346  42.0056624  81.5590262  46.4811031  42.4535108  80.9912194
  53.3267453  37.8076452  78.4611915  53.7978631  38.5216715  78.6301900
  53.6627631  37.2075202  78.9971784  53.4462568  37.8247916  78.5644290
  49.3130062  24.5820336  72.8849474  50.1345757  24.7518648  72.6431169
  48.8499713  24.7367597  72.1615772  49.3661225  24.6302069  72.7421119
  43.7155953  36.3379514  80.5386711  44.3200811  36.2975348  79.9100532
  43.5083266  37.1850666  80.5690767  43.7744850  36.4567516  80.4502827
  53.5299725  38.6045459  81.7548948  54.3498099  38.4608425  82.0165244
  53.2493803  39.2291658  82.2965386  53.6096469  38.6755811  81.8736888
  38.9507235  35.3214131  80.4085634  38.8531513  34.5110403  80.7175691
  39.7336105  35.3005925  80.0231902  39.0523372  35.1981221  80.3972497
  61.7561984  44.8272631  74.3613864  62.4542148  45.0060758  74.8535327
  62.0714316  44.3042970  73.7384253  61.9057321  44.7766403  74.3415874
  59.9288847  40.1965027  78.4435138  59.5992177  40.6476171  77.7738837
  59.2533849  40.1181191  78.9908145  59.7799284  40.2516163  78.4258362
  67.1365255  36.1850550  76.6884749  66.8218696  36.8754029  77.1205171
  66.6192197  36.1295332  75.9870250  67.0129726  36.2785439  76.6481698
  58.3677297  50.0818268  71.6029627  57.7834512  50.5868299  72.0095491
  57.9647392  49.8560655  70.8626219  58.2216601  50.1226516  71.5534653
  62.8254511  46.3283920  70.0798548  63.0650515  46.5361904  69.2673891
  63.1470352  45.5241429  70.1887493  62.9091669  46.2398021  69.9759101
  58.1344801  38.2577316  73.9258086  58.8890769  38.6255633  73.6875136
  57.9572336  38.6316870  74.6937266  58.2199280  38.3675504  74.0042975
  56.4901866  40.6647635  70.6236199  56.3077439  40.8819516  69.7977192
  57.3527479  40.7786647  70.6794813  56.5906456  40.7137533  70.5090686
  62.1701585  37.6674045  73.6585223  62.8987746  37.4890000  73.2123379
  62.2596478  38.5092125  73.8692401  62.2908247  37.7657924  73.6238740
  56.0363893  43.9421807  69.1358672  55.3222070  43.6559987  69.5481105
  56.5207862  44.2818433  69.7765060  56.0023256  43.9503457  69.2914307
  63.2111211  52.4451761  69.5120480  63.6262359  52.1136785  68.8204976
  62.3803141  52.2120664  69.3840617  63.1499220  52.3623017  69.3911328
  65.9044601  48.6962321  68.6981682  65.8224764  48.7664508  69.5636669
  66.5424322  49.2592065  68.5065422  65.9864438  48.7901292  68.7971631
  47.9829303  45.6600896  76.6665543  48.0689555  45.2832764  77.4479073
  48.6105101  45.2861342  76.1885502  48.0885854  45.5486378  76.7111021
  63.0084711  48.7182775  71.7090288  63.8225350  49.0097668  71.5973059
  62.9443853  48.0642637  71.1348581  63.1187450  48.6647970  71.6079125
  59.5195435  47.4106582  71.1737490  59.9040587  47.1914289  71.9254035
  59.2707055  48.2369528  71.3038566  59.5397507  47.5004728  71.3038566
  57.2395872  39.0803519  76.5046270  56.3718297  39.1526118  76.5703879
  57.5271076  39.8825598  76.6934245  57.1535620  39.2097666  76.5421037
  55.1663224  42.5561778  73.9463146  54.8788020  42.1863049  73.2095094
  55.8533692  43.0256634  73.6846851  55.2252121  42.5708748  73.7978222
  58.0016896  46.4214726  75.3930551  58.7239548  46.5855885  74.9334357
  57.5224888  47.1424391  75.2869891  58.0380626  46.5512956  75.3096165
  64.4079681  39.6563902  75.5054852  65.1106034  39.4571651  75.0274810
  64.1423870  38.8839845  75.8123695  64.4726314  39.5126868  75.4800294
  52.7391419  43.3342991  74.7948427  52.8407555  44.1369152  75.1229403
  53.5347305  43.1330327  74.4971508  52.8719324  43.4228889  74.7983783
  64.4460733  51.9344575  67.0506093  65.2133719  51.9944700  66.6411945
  63.9992042  51.3625016  66.5662412  64.4934161  51.8581151  66.9183804
  53.0168473  45.9536201  75.9827821  53.3967438  46.3720746  75.3188089
  52.4423838  46.5349657  76.2896665  52.9879798  46.1014060  75.9304562
  63.5217354  36.1495374  79.5770061  62.6510912  36.1234095  79.5303370
  63.7757696  35.9772567  78.7595906  63.4310915  36.1205518  79.4490197
  60.4935334  48.2063341  68.5143204  60.7827859  48.9828224  68.7886778
  60.5807133  47.6952073  69.2157703  60.5489590  48.2455260  68.6585701
  59.5282037  42.7578525  74.4285615  59.8041771  42.0397437  74.0163183
  60.1280706  43.3563445  74.2206721  59.6575301  42.7398896  74.3366376
  63.0292557  40.4292042  72.7032210  63.4836304  40.6002603  73.4280055
  63.5032603  39.8160153  72.3029986  63.1660877  40.3642927  72.7505972
  60.3705577  47.1334577  73.8077217  61.1147622  47.5208853  74.0460167
  60.5166274  46.2892002  73.9717705  60.5016162  47.0665049  73.8671187
  62.2885153  38.9284835  78.8409079  61.4421198  39.1007643  78.7150429
  62.2856285  38.1234179  79.1774907  62.1632303  38.8345864  78.8720206
  65.2866953  43.5996604  72.7696890  64.7589971  43.6825348  72.0802599
  65.7462661  44.3414476  72.7661535  65.2768803  43.7217267  72.6671586
  57.2800018  41.8699124  67.7937786  56.9312822  42.5218849  68.2569335
  56.7996464  41.8556237  67.0661657  57.1570262  41.9642178  67.7548877
  57.6523927  44.4957654  73.3063830  57.7926888  44.9930119  74.0092472
  58.1506460  43.7943949  73.4478044  57.7465008  44.4659633  73.4315409
  57.6824149  45.3624765  70.6356407  58.3169229  45.9585191  70.5705869
  57.7649760  45.0628223  71.4502277  57.7880700  45.4065674  70.7459494
  59.2603132  41.2938741  70.6101849  59.5818973  40.8141823  69.9561111
  59.5230076  42.1038387  70.4192661  59.3469157  41.3428639  70.4857341
  54.1877137  47.5592606  73.9045953  54.6969366  48.1557114  74.2857259
  54.6611409  47.2918580  73.2222373  54.3320513  47.6078422  73.8600476
  63.0956510  37.1526035  76.3815905  62.4524828  37.0023681  76.9501044
  62.7555917  36.9068380  75.6165010  62.9501587  37.0938157  76.3518920
  56.5467669  44.1948865  76.7719133  55.8279658  44.6112997  77.0391997
  56.9180031  44.7603104  76.2210772  56.4959600  44.3398146  76.7301940
  62.3214243  43.2346865  72.1092513  61.7279082  43.5563861  71.5577080
  62.3589521  42.3887960  71.9013619  62.2388632  43.1571193  71.9975284
  58.2516822  41.7302915  76.8348459  58.7274188  42.0919995  76.1998640
  57.7505422  42.3859383  77.1148602  58.2482181  41.8797104  76.7825200
  60.2943475  43.8744115  70.2021843  60.6742440  43.8923744  69.4172957
  59.5536071  44.3198104  70.0812690  60.2412313  43.9425890  70.0685411
  61.0928229  50.7121622  71.5930633  60.2839552  50.3888295  71.5463942
  61.6003138  50.0054844  71.5258881  61.0477896  50.5602938  71.5760927
  60.2862646  40.1005643  72.8849474  61.1078340  40.2703956  72.6431169
  59.8232297  40.2552904  72.1615772  60.3393808  40.1487376  72.7421119
  35.3339857   0.7856195  62.1722033  34.5822757   0.4071733  61.9438079
  35.7825869   0.8174628  61.4240844  35.2889524   0.7341802  62.0279536
  40.7864817   1.2081564  57.6007581  40.4516185   1.8858486  57.1651803
  41.2991687   0.8186876  57.0124452  40.8130398   1.2506143  57.4494372
  40.3269108   3.1595833  63.5418692  40.7108487   3.7282732  63.0023467
  40.2628249   2.4345343  63.0624508  40.3742535   3.1371296  63.3912555
  36.7525353   5.7152176  65.8399662  37.3962808   6.1565340  66.2295820
  37.0781608   4.9105602  65.7529921  36.8957181   5.6617371  65.8845139
  37.4545932  -1.2735849  61.2119524  37.7761774  -0.7330642  60.6080832
  38.1018029  -1.8439078  61.3441814  37.5971988  -1.2776674  61.1426559
  37.5504334   1.5318973  60.1809907  37.8402632   1.1407955  59.4569133
  38.2807815   1.7135678  60.6215182  37.7011218   1.5012787  60.1392714
  35.4910250   3.5086356  63.2470056  35.2710545   3.2183711  64.0396723
  35.2704772   2.8501311  62.7187969  35.4257844   3.3686064  63.2858965
  37.6578205   4.8815746  62.0300749  38.3102263   4.3492188  62.2591775
  36.9603814   4.5284398  62.4168623  37.6508923   4.7505269  62.1212917
  42.1224702   0.1458944  60.7968807  41.8811378  -0.5873195  60.3895872
  42.3026035   0.6945801  60.1435141  42.1132326   0.1181335  60.6399030
  39.6727730   0.8039907  62.0046191  40.4377621   0.5349550  61.6828855
  39.5705820   0.3189917  62.7216254  39.7709225   0.6929471  62.0626018
  38.8985463  -0.5615999  58.7540492  38.9678283  -1.4201461  58.8933493
  39.6773918  -0.3444118  58.4259517  39.0238313  -0.6563135  58.7257649
  43.2892951   1.8621702  62.9676985  42.8972742   1.5588417  62.2499852
  43.4446023   2.6990792  62.7781939  43.2546540   1.9405539  62.8333483
  44.0583256   1.2657195  66.4007020  43.8602944   1.7548010  65.7063231
  43.4370967   1.4698437  66.9791153  43.9370820   1.3673733  66.3830243
  42.8493542   2.1328388  58.9944655  42.1322852   1.9589250  58.5291893
  43.5000279   1.8980961  58.4620141  42.8395392   2.0724181  58.8473873
  38.1306704   3.3690147  65.4234803  37.7167102   2.7064277  65.0338645
  38.8154078   3.5168006  64.9030498  38.1705075   3.2930805  65.2891301
  41.4971998   2.5280232  66.1758420  41.0988281   2.6382502  65.4079240
  40.8823217   2.7362298  66.7584980  41.3470887   2.5753800  66.1489719
  58.7231616   7.6803134  61.6531871  58.6925620   8.5347771  61.8250141
  59.3212965   7.3798426  62.2118015  58.8068774   7.7619630  61.7606674
  51.9231301   6.7678785  66.4084802  51.0669196   6.9287283  66.4593919
  51.9698955   5.8970849  66.4289863  51.8030412   6.6629587  66.4190868
  46.3072441  16.3041503  62.1722033  45.5555340  15.9257041  61.9438079
  46.7558452  16.3359936  61.4240844  46.2622107  16.2527110  62.0279536
  51.7597400  16.7266872  57.6007581  51.4248769  17.4043794  57.1651803
  52.2724271  16.3372184  57.0124452  51.7862982  16.7691450  57.4494372
  51.3001692  18.6781141  63.5418692  51.6841071  19.2468040  63.0023467
  51.2360833  17.9530651  63.0624508  51.3475119  18.6556604  63.3912555
  54.7683122   8.8270829  69.0516454  55.3139082   9.5055915  69.1110423
  54.7099998   8.6858290  68.1918035  54.8399036   8.9062831  68.9328514
  47.8857197  16.3159895  64.4384806  47.9867560  15.5060249  64.7481934
  47.2898942  16.2216841  63.8084485  47.8129735  16.1824923  64.3911044
  56.5448191  10.2555436  59.9250181  56.4287716  11.0063122  60.3542319
  57.3404077   9.9979389  60.1746268  56.6452780  10.3290283  60.0254273
  47.7257936  21.2337484  65.8399662  48.3695392  21.6750648  66.2295820
  48.0514192  20.4290910  65.7529921  47.8689765  21.1802679  65.8845139
  41.0822241  12.3380181  64.0637140  40.8472425  11.5047834  63.9569408
  41.2207882  12.6184847  63.2498341  41.0677903  12.2563685  63.9279495
  43.3812328   4.5065912  66.9621447  42.7617360   3.9158559  66.7931462
  43.2796192   5.0977347  66.3285771  43.2750004   4.5069995  66.8426437
  48.4278516  14.2449459  61.2119524  48.7494357  14.7854666  60.6080832
  49.0750613  13.6746230  61.3441814  48.5704571  14.2408634  61.1426559
  50.4780224   6.2465454  61.2953910  51.1760389   6.4253581  61.7875374
  50.7932557   5.7235793  60.6724300  50.6275561   6.1959226  61.2755921
  43.1081461   8.0518194  69.2065016  42.9840158   8.6380639  69.8414835
  43.7599746   7.5578390  69.5077291  43.1855111   8.0656998  69.3450946
  50.6668159  12.6335899  61.2833702  51.1061795  12.0252999  61.7288475
  50.5172822  12.2543272  60.5119167  50.7089625  12.4874370  61.2352869
  48.1339802  11.2279911  68.4852527  48.7788805  10.7352354  68.1663476
  48.3741580  11.3704697  69.3118606  48.2650388  11.1757353  68.5602061
  50.6725894  14.0734817  68.1359420  50.9549137  13.2786222  67.9146176
  51.4012054  14.5515404  68.1564481  50.8215458  14.0269414  68.1062435
  48.6507088   1.6157851  65.3775185  48.3210418   2.0668994  64.7078884
  47.9752089   1.5374014  65.9248192  48.5017524   1.6708986  65.3598408
  54.2677496  10.9863080  58.2364471  54.1828791  11.8424047  58.3814040
  54.7561879  10.7107404  58.9046630  54.3266393  11.0720402  58.3566553
  55.1995929   7.6047874  59.7362206  54.6707401   7.8207508  60.3959513
  55.7220949   8.2984013  59.6563176  55.1984382   7.7391011  59.8217806
  60.6543982  13.1794179  65.1095251  59.8241685  13.3904822  65.2728667
  60.6053234  12.3531233  64.8337534  60.5250718  13.0883785  65.0932616
  47.0895537  11.5011091  58.5369674  46.5052752  12.0061123  58.9435538
  46.6865632  11.2753478  57.7966266  46.9434841  11.5419339  58.4874700
  42.6439566  17.2165852  65.3393346  42.1607144  17.9416342  65.3152929
  43.4562884  17.5141982  65.4503504  42.6930313  17.3668206  65.3520625
  48.7153720  16.0098033  67.9443160  48.1980661  15.6505448  67.3404468
  49.4128111  15.4860207  67.9549226  48.7419301  15.8795721  67.8573419
  49.9387771  15.7424007  72.8876995  49.3758606  15.3296617  73.4116657
  50.7008795  15.6676913  73.3070139  49.9682220  15.6701408  73.0269996
  51.5472751   7.7476743  57.0138595  51.7868755   7.9554727  56.2013938
  51.8688592   6.9434252  57.1227539  51.6309909   7.6590844  56.9099148
  45.4983763  17.7322028  65.4913626  46.2004342  17.2174017  65.5486382
  45.4181246  18.0596180  66.2960501  45.5907523  17.7036254  65.6186418
  45.2120106   2.0840458  57.5576246  45.0295680   2.3012339  56.7317239
  46.0745719   2.1979471  57.6134860  45.3124696   2.1330356  57.4430733
  44.8234538  13.9228380  64.9999234  45.6623438  14.1551313  65.0472995
  44.8546308  13.0532692  64.9306269  44.9516256  13.8285327  64.9963878
  45.4487241  14.3429255  69.3012539  45.9885466  14.2000386  69.9715912
  44.7657188  14.7426006  69.6696565  45.4279395  14.3808926  69.4546961
  54.8728126  10.0220256  64.4957564  55.6285641  10.4551770  64.5346472
  54.9790451   9.3725026  65.0692200  54.9998297   9.9897740  64.5855589
  57.9108297  13.8493533  65.2459967  57.4743529  13.8530276  66.0018938
  57.5771213  14.5299032  64.8139544  57.7970917  13.9505989  65.2940799
  52.4837371  15.8901866  76.5703117  53.2677788  16.0032714  76.9358859
  52.2833966  15.0643003  76.7661803  52.5703396  15.7848585  76.6537503
  40.8524386  10.5629546  69.4546961  40.5862802   9.7468663  69.6137951
  40.8662951  10.6082702  68.5842476  40.8149109  10.4486451  69.3500443
  44.7582133   5.3614631  56.0698719  44.0440311   5.0752810  56.4821151
  45.2426102   5.7011256  56.7105106  44.7241497   5.3696280  56.2254354
  52.6407764  17.8011968  70.2169572  51.8423010  17.5611468  70.4743441
  53.0893776  17.8526361  70.9636620  52.5882376  17.7734359  70.3654497
  61.0452644  10.5674453  64.1379604  61.7069078  10.0065122  64.0375512
  60.4044056  10.0726484  64.4632295  61.0481511  10.4110862  64.1711944
  51.9329451  13.8644585  56.4460527  52.3480600  13.5329608  55.7545023
  51.1021381  13.6313487  56.3180664  51.8717460  13.7815841  56.3251374
  41.2617800  11.3488326  66.7358705  41.0793373  11.3235212  65.8830997
  41.9967469  11.8187263  66.7747614  41.3431864  11.4149688  66.6156623
  57.3317474  11.5839836  63.8791593  57.5673063  11.7285034  63.0518443
  57.4807038  12.3482244  64.2723106  57.3883278  11.7178890  63.8155196
  59.1607931  10.4241501  61.7161196  59.4916148  10.9569142  61.1101291
  59.7341019  10.4780389  62.3723147  59.2941610  10.5111070  61.7238978
  54.3739820   8.2706404  62.3984776  54.4686675   9.0095698  62.8524402
  53.7498664   7.8423880  62.8319341  54.2948850   8.3167725  62.5292924
  52.6292294  11.4492617  73.0475057  53.2031156  10.8119861  73.2023621
  52.5507098  11.4496699  72.1784715  52.7025529  11.3557728  72.9421468
  41.2288710   8.2281826  66.8857772  41.8062213   8.0918277  67.5250017
  40.5302772   7.7717610  67.1403356  41.2109732   8.1404092  67.0180061
  54.6262841  10.1155144  55.6321729  54.5443004  10.1857331  56.4976715
  55.2642562  10.6784888  55.4405469  54.7082679  10.2094115  55.7311678
  47.9856013   9.8815882  65.0996255  47.7275257   9.0487617  65.0727554
  48.0404495  10.1073495  64.2588755  47.9555790   9.7913653  64.9716392
  46.9590725   7.4353644  65.5861150  46.3840316   7.5945813  66.2225111
  46.5826401   6.7989054  65.1229600  46.8193537   7.3651457  65.6115708
  50.6264013   5.9076994  70.4453528  50.2378446   5.4831211  69.7905719
  49.9618712   6.1559143  70.9530555  50.4710941   5.8815715  70.4241396
  36.7047544   7.0793719  63.6005590  36.7907795   6.7025587  64.3819120
  37.3323341   6.7054165  63.1225548  36.8104095   6.9679201  63.6451067
  51.7302952  10.1375598  58.6430335  52.5443591  10.4290491  58.5313106
  51.6662093   9.4835461  58.0688628  51.8405691  10.0840793  58.5419172
  47.6010860  13.6097116  63.7702647  48.2384807  13.3708863  64.3154440
  48.0265932  13.8134275  63.0355808  47.7587026  13.6048126  63.7419804
  42.2923502  15.8485452  67.6536951  42.3327648  16.1200303  66.8256730
  42.8518026  16.3727360  68.0694739  42.3806848  15.9661207  67.5928839
  48.2413675   8.8299405  58.1077536  48.6258828   8.6107112  58.8594082
  47.9925295   9.6562351  58.2378613  48.2615748   8.9197552  58.2378613
  58.9748862  12.6046043  69.1188205  58.6694680  13.3374100  69.4801521
  58.2555078  12.1983973  68.8380991  58.8236205  12.6527776  69.1301342
  49.9832332  14.0869538  65.4496433  50.0571340  13.9244710  66.3038283
  50.8001838  14.2759728  65.2056915  50.1148691  14.0906281  65.5394459
  43.7438089  14.4327401  62.4790877  42.9176206  14.6789138  62.3525156
  43.8050080  14.3539482  63.3452935  43.6312256  14.4572350  62.5879821
  45.9614112   0.4996342  63.4386317  45.0936538   0.5718942  63.5043926
  46.2489317   1.3018421  63.6274292  45.8753860   0.6290489  63.4761084
  48.5236918  17.0504281  60.1809907  48.8135216  16.6593263  59.4569133
  49.2540398  17.2320986  60.6215182  48.6743802  17.0198095  60.1392714
  49.1131663  11.8522027  71.2663037  48.6143356  12.5637795  71.3447926
  49.9231887  12.1722694  71.2281200  49.1587770  12.0048876  71.2719606
  46.4642833  19.0271664  63.2470056  46.2443129  18.7369019  64.0396723
  46.2437355  18.3686619  62.7187969  46.3990427  18.8871372  63.2858965
  45.3759780  11.1144980  65.5125758  45.0873029  10.4882452  66.0471485
  46.2443128  11.0565268  65.5790439  45.4620032  11.0132525  65.6016713
  56.1637678   6.2579764  65.8307740  55.8202444   5.5370099  66.1814990
  56.2630721   6.0493615  64.9886098  56.1279721   6.1203967  65.7579420
  48.6310789  20.4001054  62.0300749  49.2834847  19.8677496  62.2591775
  47.9336398  20.0469706  62.4168623  48.6241507  20.2690577  62.1212917
  45.5792054  12.7540231  61.4368123  46.3338022  13.1353270  61.6503586
  44.9862666  13.2051375  61.8914820  45.6028767  12.8769059  61.5351002
  56.6250707  12.7205468  61.3731728  57.1908740  13.3798678  61.2890271
  55.9778611  13.0655166  61.8448130  56.6129464  12.8687409  61.4304485
  46.8990280  13.9248793  66.8108239  46.3771034  14.0649084  67.4960103
  47.2864301  13.1659457  67.0010356  46.8793981  13.8334317  66.9409315
  43.8881464   3.9754601  60.8803193  43.6006260   3.6055872  60.1435141
  44.5751933   4.4449457  60.6186898  43.9470362   3.9901571  60.7318269
  53.0957285  15.6644252  60.7968807  52.8543961  14.9312113  60.3895872
  53.2758618  16.2131109  60.1435141  53.0864909  15.6366643  60.6399030
  48.3256606  10.9552812  62.2089730  48.1299389  11.5627546  61.6150033
  48.5490952  10.2620756  61.7281404  48.3291247  10.9430337  62.0505810
  46.7235136   7.8407550  62.3270598  47.4457788   8.0048708  61.8674404
  46.2443129   8.5617214  62.2209938  46.7598867   7.9705779  62.2436212
  54.6828644   4.1771348  67.7067283  53.8439744   4.2032627  67.4705546
  54.7533011   4.8242084  68.2872629  54.5697037   4.2767474  67.7576400
  44.3742753  10.2465622  71.4324738  44.8863850  10.5249875  70.7833498
  44.0879095  10.9854916  71.7987551  44.4077616  10.3967976  71.3914616
  58.5586167   9.3839335  64.9928525  58.4720142   9.5394761  65.8463303
  58.1036647  10.0277411  64.6187930  58.4789424   9.5015090  65.0635631
  41.4609659   4.7535814  61.7288474  41.5625795   5.5561975  62.0569450
  42.2565546   4.5523150  61.4311555  41.5937565   4.8421713  61.7323830
  52.4311983   6.7050082  63.6154084  52.1846698   6.6245833  64.4490873
  52.7597107   5.9203550  63.4216612  52.4433227   6.5776348  63.7101607
  56.3260032  13.4133442  67.4040865  56.1874392  14.1114487  67.9089608
  55.5460030  13.2582098  67.0477047  56.1903259  13.4933608  67.4267140
  48.3909011   9.4406801  73.0277067  48.5352386  10.0208009  72.3920177
  48.7384659   9.8183098  73.7326922  48.4636472   9.5827505  73.0376062
  50.5628928   8.6396969  70.8102199  49.8152242   8.8327984  70.4050477
  50.7170453   7.8142189  70.5726320  50.4751356   8.5462081  70.7147605
  47.4636766  17.6309573  69.8938094  47.6126329  17.0712489  69.2411498
  48.2436768  17.7101574  70.2770613  47.6010859  17.5595138  69.8535043
  57.8213405  12.7711695  58.1657365  57.4420214  11.9848833  58.1586654
  57.1579651  13.3198552  58.0229009  57.6671880  12.7356519  58.1438161
  49.9890066  17.8024216  71.1722585  49.9133737  17.1333026  71.7273373
  49.9179926  18.5042004  71.6863251  49.9670673  17.8069123  71.3299433
  50.6460313  16.3225214  62.0046191  51.4110204  16.0534858  61.6828855
  50.5438403  15.8375225  62.7216254  50.7441809  16.2114779  62.0626018
  48.6813083   4.5249624  68.5439427  47.8909158   4.3441084  68.8656762
  49.0773706   3.7476577  68.5269721  48.6229959   4.3837085  68.5891975
  53.1678974  13.3537398  53.9846140  53.9351959  13.4137523  53.5751992
  52.7210283  12.7817840  53.5002459  53.2152401  13.2773974  53.8523850
  54.0656769  12.1592054  66.2698872  53.3901771  11.9277286  66.7712260
  54.0749145  11.5513237  65.6440978  53.9675274  12.0350979  66.2515025
  51.1950913   7.0009883  73.0262925  51.1310055   7.8619840  72.8983062
  51.3348101   6.6841876  72.2258477  51.2066383   7.0810050  72.8891138
  56.0673504  15.0157186  58.5009050  56.1493341  15.8224173  58.1770501
  56.5523246  15.0353146  59.2249824  56.1510662  15.1377849  58.5595949
  49.8770007   9.6942022  67.1679128  49.4532256   9.8946521  66.4318147
  49.7014862   8.8470870  67.2803428  49.7880888   9.5990804  67.0752818
  49.3781701  21.2092535  69.6300586  49.8677631  20.5103325  69.4476250
  48.8065933  20.9116405  70.2176643  49.3666231  21.0618759  69.6901626
  45.1652452  10.1894074  62.6007101  45.3217071  10.1240877  63.4563093
  45.5053045  10.9642626  62.3885781  45.2385687  10.2943272  62.6961695
  51.7031597   9.5651957  61.4700464  52.2447142   9.0622339  61.9339085
  52.0178156   9.5117152  60.6589949  51.8295994   9.4831378  61.4184276
  49.8718047  14.9569309  58.7540492  49.9410867  14.0983847  58.8933493
  50.6506502  15.1741190  58.4259517  49.9970897  14.8622173  58.7257649
  52.8520866   4.4588262  71.5222765  53.0662836   3.8199176  70.9686119
  52.2354765   4.9034086  71.0930626  52.7926195   4.4298406  71.3773196
  54.2625534  17.3807010  62.9676985  53.8705326  17.0773725  62.2499852
  54.4178606  18.2176100  62.7781939  54.2279124  17.4590847  62.8333483
  41.7386714   7.3729024  62.9167868  42.1185679   7.7913569  62.2528135
  41.1642078   7.9542480  63.2236711  41.7098039   7.5206883  62.8644609
  54.4265209  13.9456999  62.9083016  54.0679864  14.1171642  63.6847048
  53.9403920  14.4070205  62.3511014  54.3023906  14.0395970  62.9408285
  49.2153574   9.6256164  55.4483250  49.5046099  10.4021047  55.7226825
  49.3025373   9.1144896  56.1497750  49.2707831   9.6648083  55.5925748
  55.5869948  14.8360895  73.8550217  56.2249669  14.3421091  73.5212673
  54.9444040  14.7638296  73.2702444  55.5864175  14.7519904  73.7192572
  57.3126948   6.6850041  68.4216132  56.8854556   6.5976390  67.6664232
  56.6753001   6.7927817  69.0070977  57.1556556   6.6882701  68.3961574
  55.6424205  15.5280703  70.4955574  56.4316583  15.1769768  70.6157655
  55.8167803  16.3417092  70.2332207  55.7844486  15.5966560  70.4743442
  45.3817515   8.9389429  67.5483362  44.5405522   8.8393303  67.7562256
  45.5907523   9.7084909  67.8997683  45.2882208   9.0381472  67.6310677
  42.8593082   6.5608966  65.3768113  42.4649780   6.6351978  64.6018223
  42.3033199   6.9466912  65.9276475  42.7195895   6.6290741  65.3435773
  49.1934180   6.8670828  66.7980960  48.8897318   6.3126817  67.3991368
  48.4913601   7.0463038  66.3108994  49.0450390   6.8115611  66.8150666
  48.2500277   4.1771348  61.3625662  48.5260012   3.4590261  60.9503229
  48.8498947   4.7756268  61.1546768  48.3793542   4.1591719  61.2706423
  47.2552531  14.0820549  71.5053058  47.1472886  14.0922611  72.3715116
  47.4648313  14.9075329  71.3158012  47.2702642  14.2061624  71.6057149
  45.2726323  11.3333191  68.9674995  44.6814256  11.9742690  68.9378010
  46.0347347  11.7570809  68.9406295  45.2974584  11.4909030  68.9590143
  55.0315839  16.7842503  66.4007020  54.8335528  17.2733317  65.7063231
  54.4103550  16.9883744  66.9791153  54.9103404  16.8859041  66.3830243
  49.0923818   8.5527400  60.7417264  49.8365863   8.9401676  60.9800214
  49.2384514   7.7084825  60.9057752  49.2234403   8.4857873  60.8011234
  52.0801694   4.1252873  66.6411183  51.6061648   3.5994635  67.1516494
  52.4519829   3.5782346  66.0726045  52.0651583   3.9668870  66.6326331
  58.3438424   9.1855249  68.0517964  58.1036647   8.3461664  68.0560390
  58.8230431   9.2655415  68.7758737  58.3790608   9.0736648  68.1592766
  54.0085193   5.0189428  59.7036937  53.4808212   5.1018172  59.0142646
  54.4680901   5.7607299  59.7001582  53.9987044   5.1410090  59.6011632
  60.3443611   5.9656706  66.0047223  60.1053381   5.9252540  65.1668008
  60.5077512   6.8127858  66.1312944  60.3333915   6.0848791  65.9000705
  56.9489641  10.3506655  71.9352268  57.6723840   9.8979182  71.7563288
  56.6839604  10.6311321  71.1524596  57.0170915  10.3257624  71.7930984
  45.8176510   4.9466829  68.6705147  45.1929580   4.9585221  68.0631100
  45.4822105   5.4227004  69.3196388  45.6762002   5.0185346  68.6761716
  46.0018258   3.2891947  54.7277832  45.6531063   3.9411673  55.1909382
  45.5214704   3.2749060  54.0001704  45.8788502   3.3835001  54.6888924
  42.5302185  13.0067289  70.1108912  42.0002110  12.3159728  70.1603886
  42.8027279  12.9977474  69.2821620  42.4926908  12.9034421  69.9956328
  53.5622276  13.5892991  58.8346594  54.2856475  14.0551104  58.6911168
  53.1222867  13.6566601  58.0844191  53.6037968  13.6676828  58.7031376
  52.7308431  10.4490533  70.0847283  52.1165424   9.9048584  70.3795919
  53.2475716   9.9354770  69.6053099  52.7164093  10.2926943  70.0571512
  51.9704728  11.5194804  67.8191582  51.5432336  10.8944522  67.3857017
  51.9629672  11.2369725  68.6450589  51.9063869  11.3847584  67.8771409
  37.8098027   9.6795053  67.4677260  37.7041477   9.6341897  66.6029344
  37.0598247  10.0248834  67.7491545  37.6833630   9.7235961  67.3814590
  46.5791760   1.1234376  67.4139860  46.6190131   1.6243583  68.1274568
  45.7541425   1.2144770  67.1445783  46.4631286   1.2116193  67.4790398
  48.0006123   7.6394886  69.7113759  47.1698053   7.8068704  69.5049007
  47.9457640   7.2630837  70.4962645  47.8695538   7.6084617  69.7962287
  46.3742167   5.9150478  60.2403877  46.5145128   6.4122942  60.9432518
  46.8724700   5.2136772  60.3818091  46.4683248   5.8852456  60.3655456
  46.4042389   6.7817589  57.5696454  47.0387469   7.3778014  57.5045916
  46.4868000   6.4821046  58.3842324  46.5098940   6.8258497  57.6799540
  47.9821372   2.7131564  57.5441896  48.3037213   2.2334647  56.8901158
  48.2448316   3.5231210  57.3532707  48.0687398   2.7621462  57.4197388
  51.2118345  13.7350438  71.0640712  50.7043436  14.2886285  71.5081342
  50.9144991  13.7958728  70.2459486  51.0923230  13.8256750  71.0089169
  42.9095377   8.9785429  60.8386000  43.4187607   9.5749937  61.2197305
  43.3829650   8.7111403  60.1562419  43.0538753   9.0271245  60.7940523
  53.8226125  17.6513696  58.9944655  53.1055435  17.4774558  58.5291893
  54.4732863  17.4166268  58.4620141  53.8127976  17.5909489  58.8473873
  56.4074097   6.5278285  62.7385960  55.7365287   7.0707987  62.6099026
  57.1013847   6.9973140  62.4967655  56.4102964   6.6776556  62.6841488
  50.4560830  18.6674997  67.9697719  50.2326485  17.9093826  68.3381745
  49.9670674  18.6973018  67.2478158  50.3504279  18.5597221  67.9174460
  45.2685909   5.6141688  63.7059180  44.5497898   6.0305821  63.9732044
  45.6398271   6.1795927  63.1550818  45.2177841   5.7590969  63.6641987
  54.5685490   6.2469537  69.5961176  54.5483417   6.0652832  70.4495955
  54.6164691   7.1181555  69.5720760  54.5720131   6.3486075  69.7184471
  52.5131820  12.8356729  75.5209652  52.4727675  12.1906406  74.9354808
  53.3255138  12.7793346  75.8335065  52.6274973  12.7315696  75.4806602
  49.1039287  18.8875455  65.4234803  48.6899686  18.2249585  65.0338645
  49.7886662  19.0353314  64.9030498  49.1437659  18.8116113  65.2891301
  52.4704581  18.0465540  66.1758420  52.0720865  18.1567810  65.4079240
  51.8555801  18.2547606  66.7584980  52.3203471  18.0939108  66.1489719
  51.0432483   4.6539688  59.0432560  50.4497323   4.9756684  58.4917127
  51.0807761   3.8080783  58.8353666  50.9606873   4.5764016  58.9315331
  53.9190300   4.6119192  62.4734310  53.6903993   4.6351894  61.6312668
  54.1788376   3.7876659  62.5929320  53.9236488   4.4935272  62.3659508
  46.9735063   3.1495739  63.7688506  47.4492429   3.5112819  63.1338687
  46.4723662   3.8052206  64.0488648  46.9700422   3.2989927  63.7165247
  60.2046424  12.6217507  59.5601511  60.5880030  13.3708863  59.7899608
  59.4090537  12.8683326  59.3013500  60.1440206  12.7687201  59.5559084
  49.0161716   5.2936939  57.1361890  49.3960681   5.3116568  56.3513004
  48.2754312   5.7390927  57.0152737  48.9630553   5.3618713  57.0025458
  38.7064277   7.0258914  67.1396285  38.5286038   6.5735523  67.8651200
  38.4183299   7.8285076  67.3234762  38.6377230   7.0781472  67.2739788
  54.3687858   8.2816632  66.3773675  54.8641524   7.5639627  66.3377695
  53.5587634   7.9787429  66.2628162  54.3231752   8.1314278  66.3547401
  49.8146470  12.1314445  58.5270680  49.0057793  11.8081118  58.4803989
  50.3221379  11.4247667  58.4598928  49.7696137  11.9795761  58.5100974
  40.4436747   9.5586638  64.2518044  39.5782267   9.5472328  64.1400815
  40.5435563   9.3716861  65.0989183  40.3310914   9.5292699  64.3606988
  56.4339677  11.0320319  69.0650804  56.8594749  10.5094741  68.5121229
  56.0696597  11.6301156  68.5439427  56.4426280  11.0430546  68.9059814
  46.0693757  19.3284537  67.8248149  46.3840316  20.1420925  67.8325931
  46.4787170  18.9434755  68.4930309  46.1761855  19.3913239  67.9252241
  53.0218277  14.7454583  65.3951961  53.4929455  15.4594846  65.5641947
  53.3578455  14.1453333  65.9311831  53.1413392  14.7626048  65.4984337
  53.6592223  14.5372517  72.1579654  53.1113169  13.9130401  71.8899719
  54.1205252  14.7266789  71.4423733  53.6459432  14.4731568  72.0130085
  43.4106777  13.2757645  67.4726758  44.0151634  13.2353479  66.8440579
  43.2034090  14.1228797  67.5030814  43.4695674  13.3945647  67.3842874
  53.2250549  15.5423590  68.6888995  54.0448923  15.3986556  68.9505290
  52.9444627  16.1669789  69.2305433  53.3047293  15.6133942  68.8076935
  38.6458059  12.2592263  67.3425681  38.5482337  11.4488534  67.6515738
  39.4286929  12.2384056  66.9571949  38.7474196  12.1359353  67.3312544
  69.6964200  23.1988442  61.6531871  69.6658204  24.0533079  61.8250141
  70.2945548  22.8983734  62.2118015  69.7801357  23.2804938  61.7606674
  62.8963884  22.2864093  66.4084802  62.0401780  22.4472591  66.4593919
  62.9431538  21.4156157  66.4289863  62.7762996  22.1814895  66.4190868
  57.2805024  31.8226811  62.1722033  56.5287924  31.4442349  61.9438079
  57.7291036  31.8545244  61.4240844  57.2354691  31.7712418  62.0279536
  62.7329984  32.2452180  57.6007581  62.3981352  32.9229102  57.1651803
  63.2456854  31.8557491  57.0124452  62.7595565  32.2876758  57.4494372
  62.2734275  34.1966449  63.5418692  62.6573655  34.7653348  63.0023467
  62.2093417  33.4715959  63.0624508  62.3207703  34.1741912  63.3912555
  65.7415705  24.3456137  69.0516454  66.2871665  25.0241223  69.1110423
  65.6832582  24.2043598  68.1918035  65.8131620  24.4248138  68.9328514
  58.8589780  31.8345203  64.4384806  58.9600143  31.0245557  64.7481934
  58.2631526  31.7402149  63.8084485  58.7862319  31.7010231  64.3911044
  67.5180774  25.7740744  59.9250181  67.4020300  26.5248430  60.3542319
  68.3136661  25.5164697  60.1746268  67.6185364  25.8475591  60.0254273
  58.6990520  36.7522792  65.8399662  59.3427975  37.1935956  66.2295820
  59.0246775  35.9476218  65.7529921  58.8422349  36.6987987  65.8845139
  52.0554825  27.8565489  64.0637140  51.8205009  27.0233142  63.9569408
  52.1940465  28.1370155  63.2498341  52.0410487  27.7748993  63.9279495
  54.3544912  20.0251220  66.9621447  53.7349944  19.4343867  66.7931462
  54.2528776  20.6162655  66.3285771  54.2482588  20.0255303  66.8426437
  59.4011100  29.7634767  61.2119524  59.7226941  30.3039974  60.6080832
  60.0483196  29.1931538  61.3441814  59.5437155  29.7593942  61.1426559
  61.4512808  21.7650762  61.2953910  62.1492972  21.9438889  61.7875374
  61.7665140  21.2421101  60.6724300  61.6008145  21.7144534  61.2755921
  54.0814045  23.5703502  69.2065016  53.9572742  24.1565947  69.8414835
  54.7332330  23.0763697  69.5077291  54.1587694  23.5842306  69.3450946
  61.6400743  28.1521207  61.2833702  62.0794379  27.5438307  61.7288475
  61.4905406  27.7728580  60.5119167  61.6822209  28.0059678  61.2352869
  59.1072386  26.7465219  68.4852527  59.7521389  26.2537662  68.1663476
  59.3474163  26.8890005  69.3118606  59.2382971  26.6942661  68.5602061
  61.6458477  29.5920125  68.1359420  61.9281720  28.7971530  67.9146176
  62.3744638  30.0700712  68.1564481  61.7948041  29.5454721  68.1062435
  59.6239671  17.1343158  65.3775185  59.2943001  17.5854302  64.7078884
  58.9484673  17.0559322  65.9248192  59.4750108  17.1894294  65.3598408
  65.2410080  26.5048388  58.2364471  65.1561375  27.3609355  58.3814040
  65.7294463  26.2292712  58.9046630  65.2998977  26.5905710  58.3566553
  66.8316079  13.1228681  63.6224796  66.5169520  13.8132160  64.0545218
  66.3143021  13.0673464  62.9210296  66.7080549  13.2163570  63.5821745
  66.1728513  23.1233182  59.7362206  65.6439984  23.3392816  60.3959513
  66.6953533  23.8169321  59.6563176  66.1716966  23.2576319  59.8217806
  71.6276566  28.6979487  65.1095251  70.7974269  28.9090130  65.2728667
  71.5785818  27.8716541  64.8337534  71.4983301  28.6069093  65.0932616
  58.0628121  27.0196399  58.5369674  57.4785336  27.5246430  58.9435538
  57.6598216  26.7938786  57.7966266  57.9167424  27.0604647  58.4874700
  53.6172149  32.7351160  65.3393346  53.1339728  33.4601650  65.3152929
  54.4295468  33.0327290  65.4503504  53.6662897  32.8853514  65.3520625
  59.6886303  31.5283341  67.9443160  59.1713245  31.1690756  67.3404468
  60.3860695  31.0045515  67.9549226  59.7151884  31.3981029  67.8573419
  63.3449895  31.9778155  73.9059333  63.4333241  31.7904295  74.7537544
  63.7739608  31.3315585  73.5064180  63.4211998  31.8541163  73.9731085
  60.9120355  31.2609315  72.8876995  60.3491190  30.8481925  73.4116657
  61.6741379  31.1862221  73.3070139  60.9414804  31.1886715  73.0269996
  62.5205335  23.2662051  57.0138595  62.7601339  23.4740035  56.2013938
  62.8421176  22.4619560  57.1227539  62.6042493  23.1776152  56.9099148
  57.8295625  15.1955447  60.8598133  58.5841593  15.5633764  60.6215183
  57.6523160  15.5695001  61.6277312  57.9150104  15.3053635  60.9383021
  56.4716347  33.2507336  65.4913626  57.1736926  32.7359325  65.5486382
  56.3913830  33.5781487  66.2960501  56.5640107  33.2221562  65.6186418
  57.5195253  23.4882923  74.6194041  57.6915757  23.3788818  75.4679322
  58.0564611  24.1337328  74.3825233  57.6240257  23.5674925  74.7099137
  56.1852690  17.6025766  57.5576246  56.0028263  17.8197647  56.7317239
  57.0478303  17.7164779  57.6134860  56.2857279  17.6515664  57.4430733
  55.7967122  29.4413688  64.9999234  56.6356021  29.6736621  65.0472995
  55.8278891  28.5718000  64.9306269  55.9248840  29.3470635  64.9963878
  56.4219825  29.8614563  69.3012539  56.9618050  29.7185694  69.9715912
  55.7389771  30.2611314  69.6696565  56.4011979  29.8994234  69.4546961
  61.8652409  14.6052177  60.5925270  62.5938570  14.4268132  60.1463426
  61.9547302  15.4470256  60.8032448  61.9859071  14.7036055  60.5578787
  65.8460710  25.5405564  64.4957564  66.6018225  25.9737078  64.5346472
  65.9523034  24.8910334  65.0692200  65.9730880  25.5083048  64.5855589
  68.8840881  29.3678841  65.2459967  68.4476113  29.3715584  66.0018938
  68.5503796  30.0484340  64.8139544  68.7703501  29.4691297  65.2940799
  63.4569955  31.4087174  76.5703117  64.2410371  31.5218022  76.9358859
  63.2566549  30.5828311  76.7661803  63.5435980  31.3033893  76.6537503
  51.8256970  26.0814854  69.4546961  51.5595385  25.2653971  69.6137951
  51.8395534  26.1268010  68.5842476  51.7881692  25.9671759  69.3500443
  55.7314717  20.8799939  56.0698719  55.0172894  20.5938118  56.4821151
  56.2158686  21.2196564  56.7105106  55.6974080  20.8881588  56.2254354
  56.5755576  19.6193232  72.1013968  55.8827373  19.1490212  72.3474700
  57.1915904  19.3931537  72.6755676  56.5640106  19.5160364  72.2223121
  63.6140348  33.3197276  70.2169572  62.8155594  33.0796776  70.4743441
  64.0626359  33.3711669  70.9636620  63.5614959  33.2919667  70.3654497
  72.0185227  26.0859761  64.1379604  72.6801661  25.5250430  64.0375512
  71.3776639  25.5911792  64.4632295  72.0214095  25.9296170  64.1711944
  62.9062035  29.3829892  56.4460527  63.3213183  29.0514916  55.7545023
  62.0753965  29.1498795  56.3180664  62.8450044  29.3001148  56.3251374
  52.2350384  26.8673634  66.7358705  52.0525957  26.8420520  65.8830997
  52.9700053  27.3372571  66.7747614  52.3164448  26.9334996  66.6156623
  68.3050058  27.1025143  63.8791593  68.5405647  27.2470342  63.0518443
  68.4539622  27.8667552  64.2723106  68.3615861  27.2364198  63.8155196
  55.2996135  23.5858636  73.2440814  56.0236108  23.5711667  73.7305708
  55.4012272  24.2953992  72.7462782  55.4214344  23.6883340  73.2419600
  70.1340515  25.9426809  61.7161196  70.4648732  26.4754450  61.1101291
  70.7073603  25.9965697  62.3723147  70.2674194  26.0296378  61.7238978
  65.3472404  23.7891712  62.3984776  65.4419258  24.5281006  62.8524402
  64.7231247  23.3609188  62.8319341  65.2681434  23.8353033  62.5292924
  63.6024878  26.9677925  73.0475057  64.1763739  26.3305169  73.2023621
  63.5239681  26.9682007  72.1784715  63.6758112  26.8743036  72.9421468
  52.2021294  23.7467134  66.8857772  52.7794797  23.6103585  67.5250017
  51.5035356  23.2902918  67.1403356  52.1842315  23.6589400  67.0180061
  65.5995425  25.6340452  55.6321729  65.5175588  25.7042639  56.4976715
  66.2375146  26.1970196  55.4405469  65.6815262  25.7279423  55.7311678
  58.9588596  25.4001190  65.0996255  58.7007841  24.5672925  65.0727554
  59.0137079  25.6258803  64.2588755  58.9288374  25.3098961  64.9716392
  64.0389646  17.5029641  65.2000347  63.3345973  17.0138826  65.3584267
  64.0874621  17.5152115  64.3288792  63.9419698  17.4319289  65.0939687
  57.9323308  22.9538952  65.5861150  57.3572900  23.1131121  66.2225111
  57.5558985  22.3174361  65.1229600  57.7926121  22.8836765  65.6115708
  61.5996597  21.4262302  70.4453528  61.2111030  21.0016519  69.7905719
  60.9351295  21.6744451  70.9530555  61.4443525  21.4001023  70.4241396
  71.2419866  21.1837306  63.2201358  70.9856431  20.3717248  63.0299241
  72.0849180  21.1914873  62.9931545  71.3285892  21.0649304  63.1586175
  47.6780127  22.5979027  63.6005590  47.7640379  22.2210895  64.3819120
  48.3055925  22.2239473  63.1225548  47.7836678  22.4864509  63.6451067
  62.7035535  25.6560906  58.6430335  63.5176174  25.9475799  58.5313106
  62.6394677  25.0020769  58.0688628  62.8138274  25.6026101  58.5419172
  58.5743444  29.1282424  63.7702647  59.2117390  28.8894171  64.3154440
  58.9998515  29.3319583  63.0355808  58.7319610  29.1233434  63.7419804
  53.2656086  31.3670760  67.6536951  53.3060231  31.6385611  66.8256730
  53.8250610  31.8912668  68.0694739  53.3539432  31.4846515  67.5928839
  59.2146259  24.3484713  58.1077536  59.5991411  24.1292420  58.8594082
  58.9657879  25.1747659  58.2378613  59.2348331  24.4382860  58.2378613
  69.9481446  28.1231351  69.1188205  69.6427263  28.8559408  69.4801521
  69.2287662  27.7169281  68.8380991  69.7968788  28.1713084  69.1301342
  60.9564915  29.6054846  65.4496433  61.0303924  29.4430018  66.3038283
  61.7734422  29.7945036  65.2056915  61.0881274  29.6091589  65.5394459
  54.7170672  29.9512709  62.4790877  53.8908790  30.1974446  62.3525156
  54.7782663  29.8724790  63.3452935  54.6044839  29.9757658  62.5879821
  56.9346696  16.0181650  63.4386317  56.0669121  16.0904250  63.5043926
  57.2221900  16.8203729  63.6274292  56.8486444  16.1475797  63.4761084
  59.4969501  32.5689589  60.1809907  59.7867800  32.1778571  59.4569133
  60.2272982  32.7506294  60.6215182  59.6476385  32.5383403  60.1392714
  60.0864246  27.3707335  71.2663037  59.5875940  28.0823103  71.3447926
  60.8964471  27.6908002  71.2281200  60.1320353  27.5234184  71.2719606
  57.4375417  34.5456972  63.2470056  57.2175712  34.2554326  64.0396723
  57.2169939  33.8871927  62.7187969  57.3723011  34.4056680  63.2858965
  56.3492364  26.6330288  65.5125758  56.0605613  26.0067760  66.0471485
  57.2175712  26.5750576  65.5790439  56.4352616  26.5317832  65.6016713
  67.1370262  21.7765072  65.8307740  66.7935028  21.0555407  66.1814990
  67.2363304  21.5678923  64.9886098  67.1012305  21.6389275  65.7579420
  59.6043373  35.9186362  62.0300749  60.2567431  35.3862804  62.2591775
  58.9068981  35.5655014  62.4168623  59.5974090  35.7875885  62.1212917
  56.5524637  28.2725539  61.4368123  57.3070605  28.6538578  61.6503586
  55.9595250  28.7236683  61.8914820  56.5761351  28.3954367  61.5351002
  67.5983291  28.2390776  61.3731728  68.1641323  28.8983986  61.2890271
  66.9511194  28.5840474  61.8448130  67.5862047  28.3872717  61.4304485
  57.8722864  29.4434101  66.8108239  57.3503617  29.5834392  67.4960103
  58.2596884  28.6844765  67.0010356  57.8526565  29.3519624  66.9409315
  54.8614048  19.4939909  60.8803193  54.5738844  19.1241180  60.1435141
  55.5484516  19.9634765  60.6186898  54.9202945  19.5086879  60.7318269
  64.0689869  31.1829560  60.7968807  63.8276545  30.4497421  60.3895872
  64.2491202  31.7316417  60.1435141  64.0597493  31.1551951  60.6399030
  59.2989190  26.4738120  62.2089730  59.1031972  27.0812854  61.6150033
  59.5223535  25.7806064  61.7281404  59.3023831  26.4615645  62.0505810
  57.6967720  23.3592858  62.3270598  58.4190371  23.5234016  61.8674404
  57.2175712  24.0802522  62.2209938  57.7331450  23.4891087  62.2436212
  65.6561227  19.6956656  67.7067283  64.8172328  19.7217935  67.4705546
  65.7265594  20.3427392  68.2872629  65.5429621  19.7952782  67.7576400
  55.3475336  25.7650930  71.4324738  55.8596433  26.0435183  70.7833498
  55.0611679  26.5040224  71.7987551  55.3810199  25.9153284  71.3914616
  64.1030505  16.5942033  62.4394899  64.8056858  16.3949782  61.9614857
  63.8374694  15.8217976  62.7463742  64.1677138  16.4504999  62.4140340
  69.5318751  24.9024643  64.9928525  69.4452726  25.0580069  65.8463303
  69.0769231  25.5462719  64.6187930  69.4522008  25.0200398  65.0635631
  52.4342243  20.2721122  61.7288474  52.5358379  21.0747283  62.0569450
  53.2298129  20.0708458  61.4311555  52.5670148  20.3607021  61.7323830
  58.8659062  17.8577319  71.4925779  58.6742259  17.8732453  72.3425203
  59.7157658  18.0540993  71.4692434  58.9634784  17.8891670  71.6149074
  53.2505975  20.3868300  69.4709596  53.1091467  19.5352241  69.5954104
  53.5346538  20.4296961  68.6471802  53.2713821  20.2668050  69.3677220
  63.4044567  22.2235390  63.6154084  63.1579281  22.1431141  64.4490873
  63.7329690  21.4388858  63.4216612  63.4165811  22.0961656  63.7101607
  67.2992616  28.9318750  67.4040865  67.1606975  29.6299795  67.9089608
  66.5192614  28.7767406  67.0477047  67.1635843  29.0118916  67.4267140
  59.3641594  24.9592109  73.0277067  59.5084970  25.5393317  72.3920177
  59.7117243  25.3368406  73.7326922  59.4369056  25.1012813  73.0376062
  61.5361512  24.1582277  70.8102199  60.7884826  24.3513292  70.4050477
  61.6903037  23.3327497  70.5726320  61.4483939  24.0647389  70.7147605
  58.4369349  33.1494881  69.8938094  58.5858913  32.5897797  69.2411498
  59.2169351  33.2286882  70.2770613  58.5743443  33.0780446  69.8535043
  68.7945989  28.2897003  58.1657365  68.4152797  27.5034141  58.1586654
  68.1312234  28.8383860  58.0229009  68.6404464  28.2541827  58.1438161
  60.9622650  33.3209524  71.1722585  60.8866321  32.6518334  71.7273373
  60.8912509  34.0227312  71.6863251  60.9403257  33.3254431  71.3299433
  61.7763289  18.0532828  71.6997603  62.2335903  18.7856802  71.8270395
  61.8519617  17.6299293  72.4584858  61.8554259  18.0990066  71.8298679
  54.0196280  18.2998648  72.7887046  53.4838469  17.6879006  73.1047814
  54.0814045  18.8746784  73.4420713  53.9491913  18.2945575  72.9322473
  61.6192897  31.8410522  62.0046191  62.3842788  31.5720166  61.6828855
  61.5170987  31.3560533  62.7216254  61.7174392  31.7300087  62.0626018
  59.6545667  20.0434932  68.5439427  58.8641741  19.8626392  68.8656762
  60.0506289  19.2661884  68.5269721  59.5962543  19.9022393  68.5891975
  64.1411557  28.8722706  53.9846140  64.9084543  28.9322831  53.5751992
  63.6942866  28.3003148  53.5002459  64.1884985  28.7959282  53.8523850
  65.0389353  27.6777362  66.2698872  64.3634355  27.4462594  66.7712260
  65.0481729  27.0698545  65.6440978  64.9407857  27.5536287  66.2515025
  62.1683497  22.5195191  73.0262925  62.1042638  23.3805147  72.8983062
  62.3080685  22.2027184  72.2258477  62.1798967  22.5995358  72.8891138
  67.0406088  30.5342494  58.5009050  67.1225925  31.3409481  58.1770501
  67.5255830  30.5538454  59.2249824  67.1243245  30.6563157  58.5595949
  60.8502591  25.2127330  67.1679128  60.4264840  25.4131829  66.4318147
  60.6747446  24.3656178  67.2803428  60.7613471  25.1176112  67.0752818
  60.3514284  36.7277843  69.6300586  60.8410215  36.0288633  69.4476250
  59.7798517  36.4301713  70.2176643  60.3398814  36.5804067  69.6901626
  56.1385036  25.7079382  62.6007101  56.2949655  25.6426185  63.4563093
  56.4785629  26.4827934  62.3885781  56.2118271  25.8128580  62.6961695
  62.6764180  25.0837265  61.4700464  63.2179726  24.5807646  61.9339085
  62.9910739  25.0302460  60.6589949  62.8028577  25.0016686  61.4184276
  60.8450630  30.4754617  58.7540492  60.9143450  29.6169155  58.8933493
  61.6239085  30.6926498  58.4259517  60.9703480  30.3807481  58.7257649
  63.8253450  19.9773570  71.5222765  64.0395419  19.3384484  70.9686119
  63.2087349  20.4219394  71.0930626  63.7658779  19.9483714  71.3773196
  65.2358118  32.8992318  62.9676985  64.8437909  32.5959033  62.2499852
  65.3911190  33.7361408  62.7781939  65.2011708  32.9776155  62.8333483
  52.7119297  22.8914332  62.9167868  53.0918262  23.3098877  62.2528135
  52.1374662  23.4727788  63.2236711  52.6830622  23.0392191  62.8644609
  65.3997792  29.4642307  62.9083016  65.0412447  29.6356950  63.6847048
  64.9136503  29.9255513  62.3511014  65.2756489  29.5581278  62.9408285
  63.2168178  13.0873506  66.5110107  62.3461736  13.0612227  66.4643417
  63.4708520  12.9150698  65.6935953  63.1261739  13.0583649  66.3830244
  60.1886158  25.1441472  55.4483250  60.4778683  25.9206355  55.7226825
  60.2757957  24.6330204  56.1497750  60.2440414  25.1833391  55.5925748
  60.2417319  15.0979734  67.9683578  59.7255807  14.4059925  68.0935157
  59.6811248  15.7650511  67.9146176  60.0823832  15.0942992  67.9789644
  62.3109552  15.6372694  69.7976430  61.9241306  15.6621725  70.5789960
  61.8242490  15.0714373  69.3450947  62.1822061  15.5568445  69.8464334
  66.5602532  30.3546203  73.8550217  67.1982252  29.8606399  73.5212673
  65.9176623  30.2823603  73.2702444  66.5596758  30.2705211  73.7192572
  68.2859532  22.2035349  68.4216132  67.8587140  22.1161698  67.6664232
  67.6485585  22.3113124  69.0070977  68.1289139  22.2068009  68.3961574
  66.6156788  31.0466011  70.4955574  67.4049167  30.6955076  70.6157655
  66.7900386  31.8602400  70.2332207  66.7577070  31.1151868  70.4743442
  56.3550099  24.4574737  67.5483362  55.5138105  24.3578611  67.7562256
  56.5640107  25.2270217  67.8997683  56.2614791  24.5566780  67.6310677
  53.8325666  22.0794274  65.3768113  53.4382364  22.1537286  64.6018223
  53.2765783  22.4652220  65.9276475  53.6928478  22.1476049  65.3435773
  65.4690613  15.0575568  65.0571992  65.6740206  14.9897876  65.9028989
  65.1417037  15.8634389  64.9893169  65.4505860  15.1661508  65.1731647
  60.1666764  22.3856136  66.7980960  59.8629901  21.8312124  67.3991368
  59.4646184  22.5648346  66.3108994  60.0182973  22.3300919  66.8150666
  59.2232861  19.6956656  61.3625662  59.4992595  18.9775569  60.9503229
  59.8231530  20.2941576  61.1546768  59.3526125  19.6777027  61.2706423
  58.2285115  29.6005857  71.5053058  58.1205470  29.6107919  72.3715116
  58.4380896  30.4260637  71.3158012  58.2435226  29.7246932  71.6057149
  68.7224300  15.6107332  64.5374757  68.1098614  16.0977734  64.9228489
  68.8188475  14.9350823  65.0812409  68.6462198  15.5825641  64.6753616
  62.7243381  17.3670173  59.6372257  63.1787128  17.5380734  60.3620101
  63.1983427  16.7538284  59.2370033  62.8611701  17.3021059  59.6846018
  56.2458907  26.8518499  68.9674995  55.6546840  27.4927997  68.9378010
  57.0079930  27.2756117  68.9406295  56.2707167  27.0094338  68.9590143
  56.6419529  18.0120497  69.6343013  57.1021011  18.0859426  70.3718137
  56.6875636  18.8101751  69.2842834  56.7170085  18.1414644  69.6915769
  58.2902879  18.6787192  74.2015040  57.8988444  18.0320539  74.6370818
  58.4588742  19.2698627  74.8209295  58.2573790  18.6701460  74.3577746
  66.0048423  32.3027811  66.4007020  65.8068112  32.7918625  65.7063231
  65.3836134  32.5069052  66.9791153  65.8835987  32.4044349  66.3830243
  60.0656401  24.0712708  60.7417264  60.8098446  24.4586984  60.9800214
  60.2117097  23.2270133  60.9057752  60.1966986  24.0043181  60.8011234
  61.9835977  15.8662967  65.7749126  61.1372022  16.0385774  65.6490475
  61.9807109  15.0612310  66.1114954  61.8583127  15.7723996  65.8060252
  63.0534277  19.6438181  66.6411183  62.5794231  19.1179943  67.1516494
  63.4252413  19.0967654  66.0726045  63.0384166  19.4854178  66.6326331
  53.4307307  21.6409688  72.0094729  54.2932920  21.5405397  71.9232059
  53.0999090  21.0604397  71.4480301  53.5092504  21.5401314  71.9140135
  69.3171008  24.7040557  68.0517964  69.0769231  23.8646972  68.0560390
  69.7963015  24.7840723  68.7758737  69.3523191  24.5921956  68.1592766
  64.9817777  20.5374736  59.7036937  64.4540795  20.6203480  59.0142646
  65.4413485  21.2792607  59.7001582  64.9719627  20.6595398  59.6011632
  71.3176195  21.4842014  66.0047223  71.0785965  21.4437848  65.1668008
  71.4810096  22.3313166  66.1312944  71.3066498  21.6034099  65.9000705
  67.9222225  25.8691963  71.9352268  68.6456424  25.4164490  71.7563288
  67.6572187  26.1496629  71.1524596  67.9903498  25.8442932  71.7930984
  56.7909093  20.4652137  68.6705147  56.1662163  20.4770529  68.0631100
  56.4554688  20.9412312  69.3196388  56.6494585  20.5370654  68.6761716
  56.9750842  18.8077255  54.7277832  56.6263646  19.4596980  55.1909382
  56.4947288  18.7934368  54.0001704  56.8521086  18.9020309  54.6888924
  53.5034769  28.5252597  70.1108912  52.9734693  27.8345036  70.1603886
  53.7759862  28.5162782  69.2821620  53.4659491  28.4219729  69.9956328
  64.5354859  29.1078299  58.8346594  65.2589058  29.5736412  58.6911168
  64.0955450  29.1751909  58.0844191  64.5770552  29.1862136  58.7031376
  63.7041014  25.9675841  70.0847283  63.0898007  25.4233892  70.3795919
  64.2208299  25.4540078  69.6053099  63.6896677  25.8112250  70.0571512
  62.9437312  27.0380111  67.8191582  62.5164920  26.4129830  67.3857017
  62.9362256  26.7555033  68.6450589  62.8796453  26.9032892  67.8771409
  56.0599839  22.0745284  70.8880016  56.2193325  21.3188609  71.2931738
  55.8792732  22.6236224  71.5420754  56.0565198  22.0439098  71.0442722
  61.2723021  17.9148866  68.0334116  61.2965508  17.3808978  67.3446896
  61.5234495  17.4066175  68.6959706  61.3132940  17.7609770  68.0298761
  48.7830611  25.1980361  67.4677260  48.6774060  25.1527205  66.6029344
  48.0330831  25.5434142  67.7491545  48.6566214  25.2421269  67.3814590
  57.5524343  16.6419684  67.4139860  57.5922715  17.1428891  68.1274568
  56.7274008  16.7330078  67.1445783  57.4363869  16.7301501  67.4790398
  59.7353956  26.2080424  75.5160155  58.8849587  26.3452138  75.6517800
  59.8982084  25.4744202  75.9607856  59.6337820  26.1194525  75.6015754
  58.9738707  23.1580194  69.7113759  58.1430636  23.3254012  69.5049007
  58.9190224  22.7816145  70.4962645  58.8428122  23.1269925  69.7962287
  57.3474751  21.4335786  60.2403877  57.4877712  21.9308250  60.9432518
  57.8457283  20.7322080  60.3818091  57.4415832  21.4037764  60.3655456
  57.3774973  22.3002897  57.5696454  58.0120053  22.8963322  57.5045916
  57.4600584  22.0006354  58.3842324  57.4831524  22.3443805  57.6799540
  58.9553956  18.2316872  57.5441896  59.2769797  17.7519955  56.8901158
  59.2180900  19.0416518  57.3532707  59.0419981  18.2806770  57.4197388
  62.1850929  29.2535746  71.0640712  61.6776020  29.8071593  71.5081342
  61.8877575  29.3144036  70.2459486  62.0655814  29.3442058  71.0089169
  64.3513111  17.6189066  69.9065375  64.7768182  17.1661592  69.2948901
  63.7370104  17.0649137  70.1830162  64.3241756  17.4703042  69.8570400
  53.8827961  24.4970737  60.8386000  54.3920190  25.0935245  61.2197305
  54.3562233  24.2296711  60.1562419  54.0271337  24.5456553  60.7940523
  64.7958709  33.1699004  58.9944655  64.0788019  32.9959866  58.5291893
  65.4465447  32.9351576  58.4620141  64.7860559  33.1094797  58.8473873
  62.7907334  14.0904166  63.3155952  62.1475652  13.9401812  63.8841090
  62.4506741  13.8446511  62.5505056  62.6452411  14.0316288  63.2858967
  67.3806680  22.0463593  62.7385960  66.7097870  22.5893295  62.6099026
  68.0746430  22.5158448  62.4967655  67.3835548  22.1961864  62.6841488
  61.4293414  34.1860305  67.9697719  61.2059068  33.4279134  68.3381745
  60.9403257  34.2158326  67.2478158  61.3236863  34.0782529  67.9174460
  67.5434808  18.5019476  65.6476334  67.8962418  18.0749199  66.3222132
  66.6849609  18.4170320  65.7777410  67.4684252  18.4264217  65.7671344
  56.2418493  21.1326996  63.7059180  55.5230482  21.5491129  63.9732044
  56.6130855  21.6981235  63.1550818  56.1910424  21.2776277  63.6641987
  65.5418073  21.7654845  69.5961176  65.5216001  21.5838140  70.4495955
  65.5897274  22.6366863  69.5720760  65.5452714  21.8671383  69.7184471
  63.4864403  28.3542037  75.5209652  63.4460258  27.7091714  74.9354808
  64.2987722  28.2978654  75.8335065  63.6007557  28.2501004  75.4806602
  60.0771871  34.4060763  65.4234803  59.6632269  33.7434893  65.0338645
  60.7619245  34.5538622  64.9030498  60.1170243  34.3301421  65.2891301
  63.4437165  33.5650848  66.1758420  63.0453448  33.6753118  65.4079240
  62.8288385  33.7732914  66.7584980  63.2936054  33.6124416  66.1489719
  62.0165067  20.1724996  59.0432560  61.4229906  20.4941992  58.4917127
  62.0540345  19.3266091  58.8353666  61.9339456  20.0949324  58.9315331
  64.8922884  20.1304500  62.4734310  64.6636577  20.1537202  61.6312668
  65.1520960  19.3061967  62.5929320  64.8969072  20.0120580  62.3659508
  59.1742112  21.9838973  72.0759410  58.6621015  21.3760156  72.4344441
  59.0021608  22.6995566  72.5433386  59.0731749  22.0002273  72.1975634
  54.0207827  20.4276549  74.7261772  53.8510417  21.0877924  74.1809979
  53.5773777  20.6383110  75.4474261  53.9307160  20.5562531  74.7523401
  57.9467646  18.6681047  63.7688506  58.4225012  19.0298126  63.1338687
  57.4456246  19.3237514  64.0488648  57.9433005  18.8175235  63.7165247
  71.1779008  28.1402815  59.5601511  71.5612613  28.8894171  59.7899608
  70.3823121  28.3868634  59.3013500  71.1172790  28.2872509  59.5559084
  50.9209891  23.3323414  69.9850262  50.3736611  22.6624060  70.1031130
  51.7102269  22.9653262  70.0493729  50.9562075  23.1788401  70.0118962
  60.7694300  22.9930871  75.4813673  61.5205627  23.3082548  75.7953227
  60.9616876  22.7910042  74.6547595  60.9085714  23.0098253  75.4057069
  59.9894299  20.8122246  57.1361890  60.3693264  20.8301876  56.3513004
  59.2486895  21.2576235  57.0152737  59.9363137  20.8804021  57.0025458
  67.6179590  19.1204438  62.7237468  67.6173816  18.9653094  63.5821745
  67.4135770  19.9667425  62.6678854  67.5879368  19.2225058  62.8425408
  49.6796861  22.5444222  67.1396285  49.5018622  22.0920831  67.8651200
  49.3915883  23.3470383  67.3234762  49.6109814  22.5966780  67.2739788
  65.3420442  23.8001939  66.3773675  65.8374107  23.0824934  66.3377695
  64.5320218  23.4972737  66.2628162  65.2964335  23.6499586  66.3547401
  60.7879053  27.6499753  58.5270680  59.9790376  27.3266426  58.4803989
  61.2953962  26.9432975  58.4598928  60.7428720  27.4981069  58.5100974
  51.4169331  25.0771946  64.2518044  50.5514850  25.0657636  64.1400815
  51.5168147  24.8902169  65.0989183  51.3043498  25.0478007  64.3606988
  67.4072261  26.5505627  69.0650804  67.8327332  26.0280049  68.5121229
  67.0429181  27.1486464  68.5439427  67.4158863  26.5615854  68.9059814
  57.0426341  34.8469844  67.8248149  57.3572899  35.6606233  67.8325931
  57.4519754  34.4620063  68.4930309  57.1494438  34.9098547  67.9252241
  63.9950860  30.2639891  65.3951961  64.4662038  30.9780154  65.5641947
  64.3311039  29.6638641  65.9311831  64.1145975  30.2811355  65.4984337
  64.6324806  30.0557825  72.1579654  64.0845752  29.4315709  71.8899719
  65.0937835  30.2452097  71.4423733  64.6192016  29.9916876  72.0130085
  59.9813470  17.0383775  59.8189521  60.8029164  17.2082088  59.5771216
  59.5183121  17.1931036  59.0955819  60.0344632  17.0865508  59.6761165
  58.5708802  15.0326537  70.5987950  59.1153215  14.6917664  71.1892292
  58.6245738  15.8911998  70.7409234  58.6597921  15.1081796  70.7069823
  54.3839361  28.7942953  67.4726758  54.9884218  28.7538787  66.8440579
  54.1766673  29.6414105  67.5030814  54.4428258  28.9130955  67.3842874
  64.1983133  31.0608898  68.6888995  65.0181507  30.9171864  68.9505290
  63.9177210  31.6855097  69.2305433  64.2779876  31.1319250  68.8076935
  49.6190643  27.7777570  67.3425681  49.5214921  26.9673842  67.6515738
  50.4019513  27.7569364  66.9571949  49.7206779  27.6544661  67.3312544
  73.8696468  37.8049401  66.4084802  73.0134364  37.9657899  66.4593919
  73.9164122  36.9341465  66.4289863  73.7495579  37.7000203  66.4190868
  68.2537608  47.3412119  62.1722033  67.5020507  46.9627657  61.9438079
  68.7023619  47.3730552  61.4240844  68.2087275  47.2897726  62.0279536
  73.7062568  47.7637488  57.6007581  73.3713936  48.4414410  57.1651803
  74.2189438  47.3742799  57.0124452  73.7328149  47.8062066  57.4494372
  73.2466859  49.7151757  63.5418692  73.6306238  50.2838655  63.0023467
  73.1826000  48.9901267  63.0624508  73.2940286  49.6927220  63.3912555
  76.7148289  39.8641445  69.0516454  77.2604249  40.5426531  69.1110423
  76.6565165  39.7228906  68.1918035  76.7864203  39.9433446  68.9328514
  69.8322364  47.3530511  64.4384806  69.9332727  46.5430865  64.7481934
  69.2364109  47.2587457  63.8084485  69.7594903  47.2195539  64.3911044
  69.6723103  52.2708100  65.8399662  70.3160559  52.7121264  66.2295820
  69.9979359  51.4661526  65.7529921  69.8154932  52.2173295  65.8845139
  63.0287408  43.3750797  64.0637140  62.7937593  42.5418450  63.9569408
  63.1673049  43.6555463  63.2498341  63.0143071  43.2934301  63.9279495
  65.3277496  35.5436528  66.9621447  64.7082527  34.9529175  66.7931462
  65.2261359  36.1347963  66.3285771  65.2215171  35.5440610  66.8426437
  70.3743683  45.2820075  61.2119524  70.6959524  45.8225282  60.6080832
  71.0215780  44.7116846  61.3441814  70.5169738  45.2779250  61.1426559
  72.4245391  37.2836070  61.2953910  73.1225556  37.4624197  61.7875374
  72.7397724  36.7606409  60.6724300  72.5740728  37.2329842  61.2755921
  72.6133327  43.6706515  61.2833702  73.0526962  43.0623615  61.7288475
  72.4637990  43.2913888  60.5119167  72.6554792  43.5244986  61.2352869
  70.0804970  42.2650527  68.4852527  70.7253972  41.7722970  68.1663476
  70.3206747  42.4075313  69.3118606  70.2115555  42.2127969  68.5602061
  72.6191061  45.1105432  68.1359420  72.9014304  44.3156838  67.9146176
  73.3477221  45.5886020  68.1564481  72.7680625  45.0640029  68.1062435
  70.5972255  32.6528466  65.3775185  70.2675585  33.1039610  64.7078884
  69.9217257  32.5744630  65.9248192  70.4482691  32.7079602  65.3598408
  76.2142663  42.0233696  58.2364471  76.1293958  42.8794663  58.3814040
  76.7027046  41.7478020  58.9046630  76.2731560  42.1091017  58.3566553
  77.8048663  28.6413989  63.6224796  77.4902104  29.3317468  64.0545218
  77.2875604  28.5858772  62.9210296  77.6813133  28.7348878  63.5821745
  77.1461096  38.6418490  59.7362206  76.6172568  38.8578124  60.3959513
  77.6686116  39.3354629  59.6563176  77.1449549  38.7761627  59.8217806
  69.0360704  42.5381707  58.5369674  68.4517919  43.0431738  58.9435538
  68.6330799  42.3124094  57.7966266  68.8900008  42.5789955  58.4874700
  64.5904733  48.2536468  65.3393346  64.1072311  48.9786958  65.3152929
  65.4028051  48.5512598  65.4503504  64.6395481  48.4038822  65.3520625
  70.6618887  47.0468649  67.9443160  70.1445829  46.6876064  67.3404468
  71.3593278  46.5230823  67.9549226  70.6884468  46.9166337  67.8573419
  73.4937919  38.7847359  57.0138595  73.7333922  38.9925343  56.2013938
  73.8153760  37.9804868  57.1227539  73.5775077  38.6961460  56.9099148
  68.8028209  30.7140755  60.8598133  69.5574177  31.0819072  60.6215183
  68.6255744  31.0880309  61.6277312  68.8882687  30.8238943  60.9383021
  67.4448930  48.7692644  65.4913626  68.1469509  48.2544633  65.5486382
  67.3646413  49.0966795  66.2960501  67.5372691  48.7406870  65.6186418
  68.4927837  39.0068231  74.6194041  68.6648340  38.8974126  75.4679322
  69.0297194  39.6522636  74.3825233  68.5972841  39.0860233  74.7099137
  67.1585274  33.1211074  57.5576246  66.9760847  33.3382955  56.7317239
  68.0210887  33.2350087  57.6134860  67.2589863  33.1700972  57.4430733
  66.7699706  44.9598996  64.9999234  67.6088605  45.1921929  65.0472995
  66.8011475  44.0903307  64.9306269  66.8981423  44.8655942  64.9963878
  67.3952409  45.3799871  69.3012539  67.9350634  45.2371002  69.9715912
  66.7122355  45.7796622  69.6696565  67.3744562  45.4179542  69.4546961
  72.8384993  30.1237485  60.5925270  73.5671153  29.9453439  60.1463426
  72.9279886  30.9655564  60.8032448  72.9591655  30.2221363  60.5578787
  76.8193293  41.0590872  64.4957564  77.5750808  41.4922386  64.5346472
  76.9255618  40.4095642  65.0692200  76.9463464  41.0268356  64.5855589
  62.7989554  41.6000162  69.4546961  62.5327969  40.7839279  69.6137951
  62.8128118  41.6453318  68.5842476  62.7614276  41.4857067  69.3500443
  66.7047301  36.3985246  56.0698719  65.9905478  36.1123426  56.4821151
  67.1891269  36.7381872  56.7105106  66.6706664  36.4066896  56.2254354
  67.5488160  35.1378540  72.1013968  66.8559957  34.6675520  72.3474700
  68.1648487  34.9116845  72.6755676  67.5372690  35.0345672  72.2223121
  73.8794619  44.9015200  56.4460527  74.2945767  44.5700224  55.7545023
  73.0486548  44.6684103  56.3180664  73.8182627  44.8186456  56.3251374
  63.2082967  42.3858941  66.7358705  63.0258541  42.3605827  65.8830997
  63.9432636  42.8557879  66.7747614  63.2897031  42.4520304  66.6156623
  66.2728719  39.1043944  73.2440814  66.9968691  39.0896975  73.7305708
  66.3744855  39.8139300  72.7462782  66.3946928  39.2068647  73.2419600
  76.3204987  39.3077020  62.3984776  76.4151842  40.0466314  62.8524402
  75.6963831  38.8794496  62.8319341  76.2414017  39.3538341  62.5292924
  63.1753878  39.2652442  66.8857772  63.7527380  39.1288893  67.5250017
  62.4767939  38.8088226  67.1403356  63.1574899  39.1774708  67.0180061
  76.5728009  41.1525760  55.6321729  76.4908171  41.2227947  56.4976715
  77.2107729  41.7155504  55.4405469  76.6547846  41.2464731  55.7311678
  69.9321180  40.9186498  65.0996255  69.6740424  40.0858233  65.0727554
  69.9869663  41.1444111  64.2588755  69.9020958  40.8284269  64.9716392
  75.0122230  33.0214948  65.2000347  74.3078557  32.5324134  65.3584267
  75.0607204  33.0337423  64.3288792  74.9152282  32.9504596  65.0939687
  68.9055892  38.4724260  65.5861150  68.3305483  38.6316429  66.2225111
  68.5291568  37.8359669  65.1229600  68.7658704  38.4022073  65.6115708
  72.5729181  36.9447610  70.4453528  72.1843613  36.5201827  69.7905719
  71.9083879  37.1929759  70.9530555  72.4176108  36.9186331  70.4241396
  58.6512711  38.1164335  63.6005590  58.7372963  37.7396203  64.3819120
  59.2788508  37.7424781  63.1225548  58.7569262  38.0049817  63.6451067
  73.6768119  41.1746214  58.6430335  74.4908758  41.4661107  58.5313106
  73.6127260  40.5206076  58.0688628  73.7870858  41.1211409  58.5419172
  69.5476027  44.6467732  63.7702647  70.1849974  44.4079479  64.3154440
  69.9731099  44.8504890  63.0355808  69.7052193  44.6418742  63.7419804
  64.2388669  46.8856068  67.6536951  64.2792815  47.1570919  66.8256730
  64.7983194  47.4097976  68.0694739  64.3272015  47.0031823  67.5928839
  70.1878842  39.8670021  58.1077536  70.5723995  39.6477728  58.8594082
  69.9390462  40.6932967  58.2378613  70.2080915  39.9568168  58.2378613
  71.9297499  45.1240154  65.4496433  72.0036507  44.9615326  66.3038283
  72.7467005  45.3130344  65.2056915  72.0613858  45.1276897  65.5394459
  65.6903256  45.4698017  62.4790877  64.8641373  45.7159754  62.3525156
  65.7515247  45.3910098  63.3452935  65.5777423  45.4942966  62.5879821
  67.9079279  31.5366958  63.4386317  67.0401705  31.6089558  63.5043926
  68.1954484  32.3389037  63.6274292  67.8219028  31.6661105  63.4761084
  70.4702085  48.0874897  60.1809907  70.7600383  47.6963879  59.4569133
  71.2005566  48.2691602  60.6215182  70.6208969  48.0568711  60.1392714
  71.0596830  42.8892643  71.2663037  70.5608524  43.6008411  71.3447926
  71.8697054  43.2093310  71.2281200  71.1052937  43.0419492  71.2719606
  68.4108000  50.0642280  63.2470056  68.1908296  49.7739634  64.0396723
  68.1902522  49.4057235  62.7187969  68.3455595  49.9241988  63.2858965
  67.3224948  42.1515596  65.5125758  67.0338196  41.5253067  66.0471485
  68.1908296  42.0935884  65.5790439  67.4085199  42.0503140  65.6016713
  78.1102845  37.2950380  65.8307740  77.7667611  36.5740715  66.1814990
  78.2095888  37.0864231  64.9886098  78.0744888  37.1574583  65.7579420
  70.5775956  51.4371670  62.0300749  71.2300014  50.9048112  62.2591775
  69.8801565  51.0840322  62.4168623  70.5706674  51.3061193  62.1212917
  67.5257221  43.7910847  61.4368123  68.2803189  44.1723886  61.6503586
  66.9327834  44.2421991  61.8914820  67.5493935  43.9139675  61.5351002
  68.8455448  44.9619409  66.8108239  68.3236201  45.1019700  67.4960103
  69.2329468  44.2030073  67.0010356  68.8259148  44.8704932  66.9409315
  65.8346632  35.0125217  60.8803193  65.5471427  34.6426488  60.1435141
  66.5217100  35.4820073  60.6186898  65.8935529  35.0272187  60.7318269
  75.0422453  46.7014868  60.7968807  74.8009128  45.9682729  60.3895872
  75.2223785  47.2501725  60.1435141  75.0330076  46.6737259  60.6399030
  70.2721773  41.9923428  62.2089730  70.0764556  42.5998162  61.6150033
  70.4956119  41.2991372  61.7281404  70.2756414  41.9800953  62.0505810
  68.6700303  38.8778166  62.3270598  69.3922955  39.0419324  61.8674404
  68.1908296  39.5987830  62.2209938  68.7064034  39.0076395  62.2436212
  76.6293811  35.2141964  67.7067283  75.7904911  35.2403243  67.4705546
  76.6998178  35.8612700  68.2872629  76.5162204  35.3138090  67.7576400
  66.3207920  41.2836238  71.4324738  66.8329017  41.5620491  70.7833498
  66.0344262  42.0225532  71.7987551  66.3542783  41.4338592  71.3914616
  75.0763089  32.1127341  62.4394899  75.7789442  31.9135090  61.9614857
  74.8107278  31.3403284  62.7463742  75.1409721  31.9690307  62.4140340
  63.4074826  35.7906430  61.7288474  63.5090963  36.5932591  62.0569450
  64.2030713  35.5893766  61.4311555  63.5402732  35.8792329  61.7323830
  69.8391645  33.3762627  71.4925779  69.6474842  33.3917761  72.3425203
  70.6890241  33.5726301  71.4692434  69.9367367  33.4076978  71.6149074
  64.2238558  35.9053608  69.4709596  64.0824050  35.0537549  69.5954104
  64.5079122  35.9482269  68.6471802  64.2446404  35.7853358  69.3677220
  74.3777151  37.7420698  63.6154084  74.1311865  37.6616449  64.4490873
  74.7062274  36.9574166  63.4216612  74.3898394  37.6146964  63.7101607
  78.2725199  44.4504058  67.4040865  78.1339559  45.1485103  67.9089608
  77.4925197  44.2952714  67.0477047  78.1368426  44.5304224  67.4267140
  70.3374178  40.4777417  73.0277067  70.4817554  41.0578625  72.3920177
  70.6849826  40.8553714  73.7326922  70.4101639  40.6198121  73.0376062
  72.5094095  39.6767585  70.8102199  71.7617409  39.8698600  70.4050477
  72.6635620  38.8512805  70.5726320  72.4216523  39.5832697  70.7147605
  72.7495872  33.5718136  71.6997603  73.2068486  34.3042110  71.8270395
  72.8252201  33.1484601  72.4584858  72.8286842  33.6175374  71.8298679
  64.9928864  33.8183956  72.7887046  64.4571053  33.2064314  73.1047814
  65.0546628  34.3932092  73.4420713  64.9224496  33.8130883  72.9322473
  72.5925480  47.3595830  62.0046191  73.3575372  47.0905474  61.6828855
  72.4903570  46.8745841  62.7216254  72.6906976  47.2485395  62.0626018
  70.6278250  35.5620240  68.5439427  69.8374325  35.3811700  68.8656762
  71.0238873  34.7847192  68.5269721  70.5695126  35.4207701  68.5891975
  75.1144141  44.3908014  53.9846140  75.8817126  44.4508139  53.5751992
  74.6675450  43.8188456  53.5002459  75.1617568  44.3144590  53.8523850
  76.0121937  43.1962670  66.2698872  75.3366938  42.9647902  66.7712260
  76.0214313  42.5883853  65.6440978  75.9140441  43.0721595  66.2515025
  73.1416080  38.0380499  73.0262925  73.0775222  38.8990455  72.8983062
  73.2813268  37.7212492  72.2258477  73.1531551  38.1180666  72.8891138
  78.0138671  46.0527802  58.5009050  78.0958508  46.8594789  58.1770501
  78.4988413  46.0723762  59.2249824  78.0975829  46.1748465  58.5595949
  71.8235174  40.7312638  67.1679128  71.3997423  40.9317137  66.4318147
  71.6480030  39.8841486  67.2803428  71.7346055  40.6361420  67.0752818
  67.1117619  41.2264690  62.6007101  67.2682239  41.1611493  63.4563093
  67.4518212  42.0013242  62.3885781  67.1850854  41.3313888  62.6961695
  73.6496764  40.6022573  61.4700464  74.1912309  40.0992954  61.9339085
  73.9643323  40.5487768  60.6589949  73.7761161  40.5201994  61.4184276
  71.8183214  45.9939925  58.7540492  71.8876034  45.1354463  58.8933493
  72.5971669  46.2111806  58.4259517  71.9436064  45.8992789  58.7257649
  74.7986033  35.4958878  71.5222765  75.0128003  34.8569792  70.9686119
  74.1819933  35.9404702  71.0930626  74.7391363  35.4669021  71.3773196
  76.2090701  48.4177626  62.9676985  75.8170493  48.1144341  62.2499852
  76.3643773  49.2546716  62.7781939  76.1744291  48.4961463  62.8333483
  63.6851881  38.4099640  62.9167868  64.0650846  38.8284185  62.2528135
  63.1107246  38.9913096  63.2236711  63.6563206  38.5577499  62.8644609
  76.3730376  44.9827615  62.9083016  76.0145031  45.1542258  63.6847048
  75.8869087  45.4440821  62.3511014  76.2489073  45.0766586  62.9408285
  74.1900762  28.6058813  66.5110107  73.3194320  28.5797535  66.4643417
  74.4441103  28.4336006  65.6935953  74.0994322  28.5768957  66.3830244
  71.1618741  40.6626780  55.4483250  71.4511266  41.4391663  55.7226825
  71.2490540  40.1515512  56.1497750  71.2172998  40.7018699  55.5925748
  71.2149902  30.6165042  67.9683578  70.6988391  29.9245233  68.0935157
  70.6543831  31.2835819  67.9146176  71.0556416  30.6128300  67.9789644
  73.2842136  31.1558002  69.7976430  72.8973889  31.1807033  70.5789960
  72.7975073  30.5899681  69.3450947  73.1554645  31.0753753  69.8464334
  67.3282682  39.9760045  67.5483362  66.4870689  39.8763919  67.7562256
  67.5372690  40.7455525  67.8997683  67.2347375  40.0752088  67.6310677
  64.8058249  37.5979582  65.3768113  64.4114947  37.6722594  64.6018223
  64.2498366  37.9837528  65.9276475  64.6661062  37.6661356  65.3435773
  76.4423196  30.5760876  65.0571992  76.6472790  30.5083184  65.9028989
  76.1149620  31.3819697  64.9893169  76.4238444  30.6846816  65.1731647
  71.1399347  37.9041444  66.7980960  70.8362485  37.3497432  67.3991368
  70.4378768  38.0833654  66.3108994  70.9915557  37.8486226  66.8150666
  70.1965444  35.2141964  61.3625662  70.4725179  34.4960876  60.9503229
  70.7964114  35.8126884  61.1546768  70.3258709  35.1962335  61.2706423
  69.2017698  45.1191165  71.5053058  69.0938053  45.1293227  72.3715116
  69.4113480  45.9445945  71.3158012  69.2167809  45.2432240  71.6057149
  73.6975965  32.8855481  59.6372257  74.1519711  33.0566042  60.3620101
  74.1716011  32.2723592  59.2370033  73.8344285  32.8206367  59.6846018
  67.2191490  42.3703807  68.9674995  66.6279424  43.0113305  68.9378010
  67.9812514  42.7941424  68.9406295  67.2439751  42.5279646  68.9590143
  67.6152113  33.5305805  69.6343013  68.0753595  33.6044734  70.3718137
  67.6608220  34.3287059  69.2842834  67.6902668  33.6599952  69.6915769
  69.2635463  34.1972500  74.2015040  68.8721028  33.5505847  74.6370818
  69.4321326  34.7883935  74.8209295  69.2306373  34.1886768  74.3577746
  76.9781007  47.8213119  66.4007020  76.7800695  48.3103933  65.7063231
  76.3568718  48.0254360  66.9791153  76.8568571  47.9229657  66.3830243
  71.0388985  39.5898016  60.7417264  71.7831030  39.9772292  60.9800214
  71.1849681  38.7455441  60.9057752  71.1699570  39.5228488  60.8011234
  72.9568560  31.3848275  65.7749126  72.1104605  31.5571082  65.6490475
  72.9539693  30.5797618  66.1114954  72.8315710  31.2909303  65.8060252
  74.0266861  35.1623489  66.6411183  73.5526815  34.6365251  67.1516494
  74.3984997  34.6152962  66.0726045  74.0116750  35.0039486  66.6326331
  64.4039891  37.1594996  72.0094729  65.2665504  37.0590705  71.9232059
  64.0731674  36.5789705  71.4480301  64.4825087  37.0586622  71.9140135
  75.9550360  36.0560044  59.7036937  75.4273379  36.1388788  59.0142646
  76.4146069  36.7977915  59.7001582  75.9452211  36.1780706  59.6011632
  67.7641677  35.9837445  68.6705147  67.1394747  35.9955837  68.0631100
  67.4287272  36.4597620  69.3196388  67.6227169  36.0555962  68.6761716
  67.9483426  34.3262563  54.7277832  67.5996230  34.9782288  55.1909382
  67.4679871  34.3119676  54.0001704  67.8253669  34.4205617  54.6888924
  64.4767352  44.0437905  70.1108912  63.9467277  43.3530344  70.1603886
  64.7492446  44.0348090  69.2821620  64.4392075  43.9405037  69.9956328
  75.5087443  44.6263607  58.8346594  76.2321642  45.0921720  58.6911168
  75.0688034  44.6937217  58.0844191  75.5503135  44.7047444  58.7031376
  74.6773598  41.4861149  70.0847283  74.0630591  40.9419200  70.3795919
  75.1940883  40.9725386  69.6053099  74.6629260  41.3297558  70.0571512
  73.9169895  42.5565419  67.8191582  73.4897503  41.9315138  67.3857017
  73.9094839  42.2740341  68.6450589  73.8529036  42.4218200  67.8771409
  67.0332422  37.5930592  70.8880016  67.1925909  36.8373917  71.2931738
  66.8525316  38.1421532  71.5420754  67.0297781  37.5624406  71.0442722
  72.2455605  33.4334174  68.0334116  72.2698092  32.8994286  67.3446896
  72.4967078  32.9251483  68.6959706  72.2865523  33.2795078  68.0298761
  59.7563195  40.7165669  67.4677260  59.6506644  40.6712513  66.6029344
  59.0063415  41.0619449  67.7491545  59.6298798  40.7606577  67.3814590
  68.5256927  32.1604992  67.4139860  68.5655299  32.6614199  68.1274568
  67.7006592  32.2515386  67.1445783  68.4096453  32.2486808  67.4790398
  69.9471290  38.6765502  69.7113759  69.1163220  38.8439320  69.5049007
  69.8922808  38.3001453  70.4962645  69.8160705  38.6455233  69.7962287
  68.3207334  36.9521094  60.2403877  68.4610295  37.4493558  60.9432518
  68.8189867  36.2507388  60.3818091  68.4148415  36.9223072  60.3655456
  68.3507557  37.8188205  57.5696454  68.9852636  38.4148630  57.5045916
  68.4333167  37.5191662  58.3842324  68.4564108  37.8629113  57.6799540
  69.9286539  33.7502180  57.5441896  70.2502381  33.2705262  56.8901158
  70.1913483  34.5601826  57.3532707  70.0152565  33.7992078  57.4197388
  75.3245694  33.1374374  69.9065375  75.7500766  32.6846900  69.2948901
  74.7102688  32.5834445  70.1830162  75.2974340  32.9888350  69.8570400
  64.8560545  40.0156045  60.8386000  65.3652774  40.6120553  61.2197305
  65.3294817  39.7482019  60.1562419  65.0003920  40.0641861  60.7940523
  75.7691293  48.6884312  58.9944655  75.0520602  48.5145174  58.5291893
  76.4198030  48.4536884  58.4620141  75.7593143  48.6280105  58.8473873
  73.7639917  29.6089474  63.3155952  73.1208235  29.4587120  63.8841090
  73.4239324  29.3631819  62.5505056  73.6184995  29.5501596  63.2858967
  72.4025998  49.7045613  67.9697719  72.1791652  48.9464442  68.3381745
  71.9135841  49.7343634  67.2478158  72.2969447  49.5967837  67.9174460
  67.2151076  36.6512304  63.7059180  66.4963065  37.0676436  63.9732044
  67.5863439  37.2166543  63.1550818  67.1643008  36.7961585  63.6641987
  76.5150657  37.2840153  69.5961176  76.4948584  37.1023448  70.4495955
  76.5629858  38.1552171  69.5720760  76.5185298  37.3856691  69.7184471
  71.0504454  49.9246071  65.4234803  70.6364853  49.2620201  65.0338645
  71.7351829  50.0723929  64.9030498  71.0902826  49.8486729  65.2891301
  74.4169749  49.0836156  66.1758420  74.0186032  49.1938426  65.4079240
  73.8020968  49.2918222  66.7584980  74.2668638  49.1309724  66.1489719
  72.9897651  35.6910304  59.0432560  72.3962490  36.0127300  58.4917127
  73.0272928  34.8451399  58.8353666  72.9072040  35.6134632  58.9315331
  75.8655467  35.6489808  62.4734310  75.6369160  35.6722510  61.6312668
  76.1253543  34.8247275  62.5929320  75.8701655  35.5305888  62.3659508
  70.1474696  37.5024281  72.0759410  69.6353599  36.8945464  72.4344441
  69.9754192  38.2180874  72.5433386  70.0464333  37.5187581  72.1975634
  64.9940410  35.9461857  74.7261772  64.8243001  36.6063231  74.1809979
  64.5506360  36.1568418  75.4474261  64.9039744  36.0747839  74.7523401
  68.9200230  34.1866355  63.7688506  69.3957596  34.5483434  63.1338687
  68.4188829  34.8422822  64.0488648  68.9165589  34.3360543  63.7165247
  61.8942475  38.8508722  69.9850262  61.3469194  38.1809368  70.1031130
  62.6834853  38.4838570  70.0493729  61.9294659  38.6973709  70.0118962
  70.9626883  36.3307554  57.1361890  71.3425848  36.3487184  56.3513004
  70.2219479  36.7761543  57.0152737  70.9095721  36.3989329  57.0025458
  78.5912173  34.6389746  62.7237468  78.5906400  34.4838402  63.5821745
  78.3868353  35.4852733  62.6678854  78.5611951  34.7410366  62.8425408
  60.6529444  38.0629530  67.1396285  60.4751205  37.6106139  67.8651200
  60.3648466  38.8655691  67.3234762  60.5842397  38.1152088  67.2739788
  76.3153025  39.3187247  66.3773675  76.8106691  38.6010242  66.3377695
  75.5052801  39.0158045  66.2628162  76.2696919  39.1684894  66.3547401
  71.7611637  43.1685061  58.5270680  70.9522960  42.8451734  58.4803989
  72.2686546  42.4618283  58.4598928  71.7161304  43.0166377  58.5100974
  62.3901914  40.5957254  64.2518044  61.5247434  40.5842944  64.1400815
  62.4900730  40.4087477  65.0989183  62.2776081  40.5663315  64.3606988
  78.3804844  42.0690935  69.0650804  78.8059916  41.5465357  68.5121229
  78.0161764  42.6671772  68.5439427  78.3891447  42.0801162  68.9059814
  68.0158924  50.3655152  67.8248149  68.3305483  51.1791541  67.8325931
  68.4252337  49.9805371  68.4930309  68.1227022  50.4283855  67.9252241
  74.9683444  45.7825199  65.3951961  75.4394622  46.4965462  65.5641947
  75.3043622  45.1823949  65.9311831  75.0878559  45.7996663  65.4984337
  70.9546054  32.5569083  59.8189521  71.7761748  32.7267395  59.5771216
  70.4915704  32.7116344  59.0955819  71.0077216  32.6050816  59.6761165
  69.5441385  30.5511845  70.5987950  70.0885798  30.2102972  71.1892292
  69.5978321  31.4097306  70.7409234  69.6330505  30.6267104  70.7069823
  65.3571944  44.3128261  67.4726758  65.9616802  44.2724095  66.8440579
  65.1499257  45.1599413  67.5030814  65.4160842  44.4316263  67.3842874
  60.5923227  43.2962878  67.3425681  60.4947505  42.4859150  67.6515738
  61.3752096  43.2754672  66.9571949  60.6939363  43.1729969  67.3312544
  77.6779884  51.9170554  56.0698719  76.9638061  51.6308734  56.4821151
  78.1623853  52.2567180  56.7105106  77.6439247  51.9252204  56.2254354
  69.6245294  53.6349643  63.6005590  69.7105546  53.2581511  64.3819120
  70.2521092  53.2610089  63.1225548  69.7301845  53.5235125  63.6451067
  76.8079215  50.5310525  60.8803193  76.5204011  50.1611796  60.1435141
  77.4949683  51.0005381  60.6186898  76.8668112  50.5457495  60.7318269
  74.3807410  51.3091738  61.7288474  74.4823546  52.1117899  62.0569450
  75.1763296  51.1079074  61.4311555  74.5135315  51.3977637  61.7323830
  74.6584464  53.9284948  62.9167868  75.0383429  54.3469493  62.2528135
  74.0839829  54.5098404  63.2236711  74.6295789  54.0762807  62.8644609
  75.8293128  55.5341353  60.8386000  76.3385357  56.1305861  61.2197305
  76.3027400  55.2667327  60.1562419  75.9736504  55.5827169  60.7940523
  78.1883660  52.1697612  63.7059180  77.4695649  52.5861744  63.9732044
  78.5596022  52.7351851  63.1550818  78.1375592  52.3146893  63.6641987
  56.9755848   8.7604942  49.1062080  56.2238748   8.3820480  48.8778125
  57.4241860   8.7923375  48.3580891  56.9305515   8.7090549  48.9619582
  62.4280808   9.1830311  44.5347627  62.0932176   9.8607233  44.0991850
  62.9407678   8.7935623  43.9464499  62.4546389   9.2254890  44.3834419
  61.9685099  11.1344580  50.4758739  62.3524479  11.7031479  49.9363514
  61.9044240  10.4094090  49.9964555  62.0158526  11.1120043  50.3252602
  58.5540604   8.7723334  51.3724853  58.6550967   7.9623688  51.6821981
  57.9582350   8.6780280  50.7424531  58.4813143   8.6388362  51.3251091
  58.3941344  13.6900923  52.7739709  59.0378799  14.1314087  53.1635867
  58.7197599  12.8854349  52.6869968  58.5373173  13.6366118  52.8185186
  51.7505649   4.7943621  50.9977186  51.5155833   3.9611273  50.8909455
  51.8891289   5.0748286  50.1838387  51.7361311   4.7127124  50.8619541
  59.0961924   6.7012898  48.1459571  59.4177765   7.2418105  47.5420879
  59.7434020   6.1309669  48.2781860  59.2387979   6.6972073  48.0766606
  53.3122973   9.6729291  52.2733393  52.8290551  10.3979781  52.2492976
  54.1246291   9.9705421  52.3843550  53.3613721   9.8231645  52.2860672
  59.3837127   8.4661472  54.8783207  58.8664069   8.1068887  54.2744515
  60.0811519   7.9423647  54.8889273  59.4102708   8.3359160  54.7913466
  63.0400719   8.9156286  60.8399380  63.1284065   8.7282427  61.6877590
  63.4690432   8.2693716  60.4404227  63.1162822   8.7919294  60.9071132
  60.6071179   8.1987446  59.8217042  60.0442014   7.7860056  60.3456704
  61.3692203   8.1240352  60.2410186  60.6365628   8.1264847  59.9610043
  56.1667171  10.1885467  52.4253672  56.8687750   9.6737456  52.4826429
  56.0864654  10.5159619  53.2300548  56.2590931  10.1599694  52.5526465
  55.4917946   6.3791819  51.9339281  56.3306845   6.6114752  51.9813042
  55.5229715   5.5096131  51.8646316  55.6199664   6.2848766  51.9303925
  56.1170649   6.7992694  56.2352586  56.6568874   6.6563826  56.9055958
  55.4340595   7.1989445  56.6036612  56.0962803   6.8372365  56.3887008
  63.1520779   8.3465305  63.5043164  63.9361195   8.4596153  63.8698906
  62.9517373   7.5206442  63.7001850  63.2386804   8.2412025  63.5877550
  63.3091172  10.2575407  57.1509619  62.5106418  10.0174907  57.4083488
  63.7577183  10.3089800  57.8976667  63.2565783  10.2297798  57.2994544
  51.9301208   3.8051765  53.6698752  51.7476781   3.7798651  52.8171044
  52.6650877   4.2750703  53.7087661  52.0115272   3.8713127  53.5496670
  58.2694267   6.0660555  50.7042694  58.9068214   5.8272302  51.2494487
  58.6949339   6.2697714  49.9695854  58.4270434   6.0611565  50.6759851
  52.9606910   8.3048891  54.5876998  53.0011055   8.5763742  53.7596777
  53.5201434   8.8290799  55.0034786  53.0490256   8.4224646  54.5268886
  60.6515739   6.5432977  52.3836480  60.7254748   6.3808149  53.2378330
  61.4685246   6.7323167  52.1396962  60.7832098   6.5469720  52.4734506
  54.4121496   6.8890840  49.4130924  53.5859614   7.1352577  49.2865202
  54.4733487   6.8102921  50.2792982  54.2995663   6.9135789  49.5219868
  59.1920325   9.5067720  47.1149954  59.4818624   9.1156702  46.3909180
  59.9223806   9.6884425  47.5555229  59.3427209   9.4761534  47.0732761
  57.1326241  11.4835103  50.1810103  56.9126536  11.1932458  50.9736770
  56.9120763  10.8250058  49.6528016  57.0673835  11.3434811  50.2199012
  59.2994196  12.8564493  48.9640796  59.9518254  12.3240935  49.1931822
  58.6019805  12.5033145  49.3508670  59.2924914  12.7254016  49.0552963
  56.2475461   5.2103670  48.3708170  57.0021429   5.5916710  48.5843632
  55.6546074   5.6614814  48.8254866  56.2712175   5.3332498  48.4691048
  57.5673688   6.3812232  53.7448285  57.0454441   6.5212524  54.4300150
  57.9547708   5.6222896  53.9350403  57.5477389   6.2897756  53.8749362
  63.7640693   8.1207691  47.7308854  63.5227369   7.3875552  47.3235919
  63.9442026   8.6694548  47.0775187  63.7548317   8.0930082  47.5739077
  58.1320173  10.0873012  56.8278141  58.2809737   9.5275928  56.1751545
  58.9120175  10.1665014  57.2110660  58.2694267  10.0158577  56.7875090
  60.6573474  10.2587655  58.1062632  60.5817145   9.5896465  58.6613420
  60.5863333  10.9605443  58.6203298  60.6354081  10.2632562  58.2639480
  61.3143721   8.7788654  48.9386238  62.0793612   8.5098297  48.6168902
  61.2121811   8.2938664  49.6556300  61.4125216   8.6678218  48.9966065
  60.0465108  13.6655974  56.5640632  60.5361039  12.9666764  56.3816297
  59.4749340  13.3679844  57.1516690  60.0349638  13.5182198  56.6241673
  60.5401454   7.4132748  45.6880539  60.6094274   6.5547287  45.8273539
  61.3189909   7.6304629  45.3599564  60.6654304   7.3185612  45.6597696
  64.9308942   9.8370449  49.9017032  64.5388733   9.5337165  49.1839898
  65.0862014  10.6739539  49.7121986  64.8962531   9.9154286  49.7673529
  57.9235939   6.5383988  58.4393105  57.8156294   6.5486050  59.3055163
  58.1331720   7.3638768  58.2498058  57.9386050   6.6625063  58.5397196
  65.6999247   9.2405942  53.3347067  65.5018936   9.7296757  52.6403278
  65.0786958   9.4447184  53.9131200  65.5786811   9.3422480  53.3170290
  53.1985593   5.4630728  57.0448958  52.6685517   4.7723167  57.0943933
  53.4710686   5.4540913  56.2161667  53.1610315   5.3597860  56.9296374
  48.4781435   2.1358492  54.4017307  48.3724884   2.0905336  53.5369391
  47.7281655   2.4812273  54.6831592  48.3517038   2.1799400  54.3154636
  61.8801753   6.1913878  57.9980759  61.3726844   6.7449724  58.4421389
  61.5828399   6.2522167  57.1799533  61.7606638   6.2820189  57.9429215
  64.4909533  10.1077135  45.9284702  63.7738843   9.9337998  45.4631940
  65.1416271   9.8729708  45.3960188  64.4811383  10.0472928  45.7813920
  61.1244238  11.1238436  54.9037766  60.9009892  10.3657265  55.2721792
  60.6354081  11.1536457  54.1818205  61.0187687  11.0160660  54.8514507
  59.7722695  11.3438894  52.3574850  59.3583093  10.6813024  51.9678692
  60.4570069  11.4916753  51.8370544  59.8121067  11.2679552  52.2231347
  63.1387989  10.5028979  53.1098467  62.7404272  10.6131250  52.3419287
  62.5239209  10.7111046  53.6925027  62.9886878  10.5502547  53.0829766
  56.7377164  11.7847976  54.7588196  57.0523723  12.5984364  54.7665978
  57.1470578  11.3998194  55.4270355  56.8445262  11.8476678  54.8592288
  54.0790185   5.7321084  54.4066805  54.6835042   5.6916918  53.7780625
  53.8717497   6.5792236  54.4370860  54.1379082   5.8509087  54.3182921
  63.8933957   7.9987029  55.6229042  64.7132331   7.8549995  55.8845337
  63.6128034   8.6233228  56.1645480  63.9730700   8.0697381  55.7416981
  49.3141467   4.7155702  54.2765728  49.2165745   3.9051973  54.5855784
  50.0970337   4.6947495  53.8911996  49.4157603   4.5922792  54.2652591
  73.5647292  14.7427532  53.3424849  72.7085187  14.9036030  53.3933966
  73.6114946  13.8719596  53.3629910  73.4446403  14.6378334  53.3530915
  67.9488432  24.2790250  49.1062080  67.1971331  23.9005788  48.8778125
  68.3974443  24.3108683  48.3580891  67.9038098  24.2275857  48.9619582
  73.4013392  24.7015619  44.5347627  73.0664760  25.3792541  44.0991850
  73.9140262  24.3120931  43.9464499  73.4278973  24.7440198  44.3834419
  72.9417683  26.6529888  50.4758739  73.3257062  27.2216787  49.9363514
  72.8776824  25.9279398  49.9964555  72.9891110  26.6305351  50.3252602
  76.4099113  16.8019576  55.9856500  76.9555073  17.4804662  56.0450470
  76.3515989  16.6607037  55.1258082  76.4815027  16.8811578  55.8668561
  69.5273188  24.2908642  51.3724853  69.6283551  23.4808996  51.6821981
  68.9314933  24.1965588  50.7424531  69.4545726  24.1573670  51.3251091
  69.3673927  29.2086231  52.7739709  70.0111383  29.6499395  53.1635867
  69.6930183  28.4039657  52.6869968  69.5105756  29.1551426  52.8185186
  62.7238232  20.3128929  50.9977186  62.4888417  19.4796581  50.8909455
  62.8623873  20.5933594  50.1838387  62.7093895  20.2312432  50.8619541
  65.0228320  12.4814659  53.8961494  64.4033351  11.8907306  53.7271509
  64.9212183  13.0726094  53.2625817  64.9165995  12.4818742  53.7766484
  70.0694507  22.2198206  48.1459571  70.3910348  22.7603413  47.5420879
  70.7166604  21.6494977  48.2781860  70.2120562  22.2157381  48.0766606
  72.1196215  14.2214201  48.2293957  72.8176380  14.4002328  48.7215421
  72.4348548  13.6984540  47.6064347  72.2691552  14.1707973  48.2095967
  64.7497453  16.0266941  56.1405063  64.6256149  16.6129386  56.7754882
  65.4015737  15.5327137  56.4417338  64.8271102  16.0405745  56.2790992
  72.3084151  20.6084646  48.2173749  72.7477786  20.0001746  48.6628522
  72.1588813  20.2292019  47.4459214  72.3505616  20.4623117  48.1692916
  69.7755794  19.2028658  55.4192574  70.4204796  18.7101101  55.1003523
  70.0157571  19.3453444  56.2458653  69.9066379  19.1506100  55.4942107
  72.3141885  22.0483564  55.0699467  72.5965128  21.2534969  54.8486223
  73.0428045  22.5264151  55.0904528  72.4631449  22.0018161  55.0402482
  70.2923079   9.5906598  52.3115232  69.9626409  10.0417741  51.6418931
  69.6168081   9.5122761  52.8588238  70.1433515   9.6457733  52.2938455
  75.9093487  18.9611827  45.1704518  75.8244782  19.8172794  45.3154087
  76.3977870  18.6856151  45.8386677  75.9682384  19.0469149  45.2906600
  76.8411920  15.5796621  46.6702253  76.3123392  15.7956255  47.3299559
  77.3636940  16.2732760  46.5903222  76.8400373  15.7139758  46.7557852
  68.7311528  19.4759838  45.4709721  68.1468743  19.9809870  45.8775585
  68.3281623  19.2502225  44.7306313  68.5850832  19.5168086  45.4214746
  64.2855557  25.1914599  52.2733393  63.8023135  25.9165089  52.2492976
  65.0978875  25.4890729  52.3843550  64.3346305  25.3416953  52.2860672
  70.3569711  23.9846780  54.8783207  69.8396652  23.6254195  54.2744515
  71.0544102  23.4608954  54.8889273  70.3835292  23.8544468  54.7913466
  74.0133303  24.4341594  60.8399380  74.1016649  24.2467735  61.6877590
  74.4423015  23.7879024  60.4404227  74.0895405  24.3104602  60.9071132
  71.5803763  23.7172754  59.8217042  71.0174597  23.3045364  60.3456704
  72.3424786  23.6425660  60.2410186  71.6098211  23.6450155  59.9610043
  73.1888743  15.7225490  43.9478642  73.4284746  15.9303474  43.1353985
  73.5104584  14.9182999  44.0567586  73.2725900  15.6339591  43.8439195
  67.1399754  25.7070775  52.4253672  67.8420333  25.1922764  52.4826429
  67.0597237  26.0344927  53.2300548  67.2323515  25.6785001  52.5526465
  68.1878661  15.9446362  61.5534088  68.3599164  15.8352257  62.4019369
  68.7248018  16.5900768  61.3165280  68.2923665  16.0238364  61.6439184
  66.8536098  10.0589205  44.4916293  66.6711671  10.2761086  43.6657285
  67.7161711  10.1728218  44.5474907  66.9540687  10.1079103  44.3770780
  66.4650529  21.8977127  51.9339281  67.3039429  22.1300060  51.9813042
  66.4962299  21.0281439  51.8646316  66.5932247  21.8034074  51.9303925
  67.0903232  22.3178002  56.2352586  67.6301457  22.1749133  56.9055958
  66.4073179  22.7174753  56.6036612  67.0695386  22.3557673  56.3887008
  76.5144117  17.9969003  51.4297610  77.2701632  18.4300517  51.4686519
  76.6206442  17.3473773  52.0032246  76.6414288  17.9646487  51.5195636
  74.1253362  23.8650613  63.5043164  74.9093779  23.9781461  63.8698906
  73.9249957  23.0391750  63.7001850  74.2119388  23.7597333  63.5877550
  62.4940378  18.5378293  56.3887008  62.2278793  17.7217410  56.5477998
  62.5078942  18.5831449  55.5182523  62.4565100  18.4235198  56.2840490
  66.3998125  13.3363378  43.0038766  65.6856302  13.0501557  43.4161198
  66.8842093  13.6760003  43.6445153  66.3657488  13.3445027  43.1594401
  67.2438984  12.0756671  59.0354015  66.5510781  11.6053651  59.2814747
  67.8599311  11.8494976  59.6095722  67.2323514  11.9723803  59.1563168
  74.2823755  25.7760715  57.1509619  73.4839001  25.5360215  57.4083488
  74.7309767  25.8275108  57.8976667  74.2298367  25.7483106  57.2994544
  73.5745442  21.8393332  43.3800574  73.9896591  21.5078355  42.6885070
  72.7437372  21.6062234  43.2520711  73.5133451  21.7564588  43.2591421
  62.9033791  19.3237073  53.6698752  62.7209364  19.2983959  52.8171044
  63.6383460  19.7936010  53.7087661  62.9847855  19.3898435  53.5496670
  65.9679543  16.0422075  60.1780860  66.6919515  16.0275106  60.6645755
  66.0695679  16.7517431  59.6802829  66.0897752  16.1446779  60.1759647
  76.0155811  16.2455151  49.3324823  76.1102666  16.9844445  49.7864449
  75.3914655  15.8172627  49.7659388  75.9364841  16.2916472  49.4632971
  74.2708285  19.4241364  59.9815104  74.8447147  18.7868608  60.1363668
  74.1923089  19.4245446  59.1124762  74.3441520  19.3306475  59.8761515
  62.8704702  16.2030573  53.8197818  63.4478204  16.0667024  54.4590064
  62.1718763  15.7466357  54.0743403  62.8525723  16.1152839  53.9520108
  76.2678833  18.0903891  42.5661775  76.1858995  18.1606078  43.4316762
  76.9058553  18.6533635  42.3745516  76.3498670  18.1842862  42.6651725
  69.6272004  17.8564629  52.0336302  69.3691248  17.0236364  52.0067601
  69.6820487  18.0822242  51.1928802  69.5971782  17.7662400  51.9056438
  68.6006716  15.4102391  52.5201196  68.0256307  15.5694560  53.1565157
  68.2242392  14.7737801  52.0569647  68.4609528  15.3400204  52.5455755
  72.2680005  13.8825741  57.3793575  71.8794437  13.4579958  56.7245766
  71.6034703  14.1307890  57.8870601  72.1126932  13.8564462  57.3581443
  58.3463535  15.0542466  50.5345637  58.4323787  14.6774335  51.3159167
  58.9739332  14.6802912  50.0565595  58.4520086  14.9427948  50.5791114
  73.3718943  18.1124345  45.5770382  74.1859582  18.4039238  45.4653153
  73.3078084  17.4584208  45.0028675  73.4821682  18.0589540  45.4759219
  69.2426851  21.5845863  50.7042694  69.8800798  21.3457610  51.2494487
  69.6681923  21.7883022  49.9695854  69.4003017  21.5796873  50.6759851
  63.9339493  23.8234199  54.5876998  63.9743639  24.0949050  53.7596777
  64.4934018  24.3476107  55.0034786  64.0222839  23.9409954  54.5268886
  69.8829666  16.8048153  45.0417583  70.2674819  16.5855859  45.7934128
  69.6341286  17.6311098  45.1718660  69.9031739  16.8946299  45.1718660
  71.6248323  22.0618285  52.3836480  71.6987331  21.8993457  53.2378330
  72.4417829  22.2508475  52.1396962  71.7564682  22.0655028  52.4734506
  70.1652909  25.0253028  47.1149954  70.4551207  24.6342010  46.3909180
  70.8956390  25.2069733  47.5555229  70.3159793  24.9946842  47.0732761
  70.7547654  19.8270774  58.2003084  70.2559348  20.5386542  58.2787972
  71.5647878  20.1471441  58.1621246  70.8003761  19.9797623  58.2059653
  68.1058824  27.0020411  50.1810103  67.8859120  26.7117766  50.9736770
  67.8853346  26.3435366  49.6528016  68.0406418  26.8620119  50.2199012
  67.0175772  19.0893727  52.4465805  66.7289020  18.4631199  52.9811532
  67.8859120  19.0314015  52.5130485  67.1036023  18.9881272  52.5356759
  77.8053669  14.2328511  52.7647787  77.4618435  13.5118846  53.1155036
  77.9046712  14.0242362  51.9226145  77.7695712  14.0952714  52.6919467
  70.2726780  28.3749801  48.9640796  70.9250838  27.8426243  49.1931822
  69.5752389  28.0218453  49.3508670  70.2657498  28.2439324  49.0552963
  67.2208045  20.7288978  48.3708170  67.9754013  21.1102017  48.5843632
  66.6278658  21.1800122  48.8254866  67.2444758  20.8517806  48.4691048
  78.2666698  20.6954215  48.3071775  78.8324731  21.3547425  48.2230318
  77.6194602  21.0403913  48.7788177  78.2545455  20.8436156  48.3644531
  68.5406271  21.8997540  53.7448285  68.0187025  22.0397831  54.4300150
  68.9280292  21.1408204  53.9350403  68.5209972  21.8083064  53.8749362
  65.5297456  11.9503348  47.8143240  65.2422251  11.5804619  47.0775187
  66.2167924  12.4198204  47.5526945  65.5886353  11.9650318  47.6658316
  74.7373276  23.6392999  47.7308854  74.4959952  22.9060860  47.3235919
  74.9174609  24.1879856  47.0775187  74.7280900  23.6115390  47.5739077
  69.9672597  18.9301559  49.1429776  69.7715380  19.5376293  48.5490079
  70.1906943  18.2369503  48.6621450  69.9707238  18.9179084  48.9845857
  68.3651127  15.8156297  49.2610645  69.0873779  15.9797455  48.8014451
  67.8859120  16.5365962  49.1549984  68.4014858  15.9454526  49.1776259
  76.3244635  12.1520095  54.6407330  75.4855735  12.1781374  54.4045593
  76.3949002  12.7990831  55.2212676  76.2113028  12.2516221  54.6916447
  66.0158744  18.2214369  58.3664785  66.5279841  18.4998622  57.7173544
  65.7295086  18.9603663  58.7327598  66.0493607  18.3716723  58.3254663
  63.1025650  12.7284561  48.6628521  63.2041787  13.5310722  48.9909497
  63.8981537  12.5271897  48.3651602  63.2353556  12.8170460  48.6663876
  69.5342469  10.3140758  58.4265826  69.3425666  10.3295892  59.2765250
  70.3841065  10.5104432  58.4032481  69.6318191  10.3455109  58.5489121
  63.9189382  12.8431739  56.4049643  63.7774874  11.9915680  56.5294151
  64.2029946  12.8860400  55.5811849  63.9397228  12.7231489  56.3017267
  74.0727975  14.6798829  50.5494131  73.8262689  14.5994580  51.3830920
  74.4013098  13.8952297  50.3556658  74.0849218  14.5525095  50.6441654
  77.9676023  21.3882189  54.3380912  77.8290383  22.0863235  54.8429655
  77.1876021  21.2330845  53.9817094  77.8319250  21.4682355  54.3607186
  70.0325002  17.4155548  59.9617114  70.1768378  17.9956756  59.3260224
  70.3800650  17.7931845  60.6666969  70.1052463  17.5576252  59.9716109
  72.2044919  16.6145716  57.7442246  71.4568233  16.8076731  57.3390524
  72.3586444  15.7890936  57.5066367  72.1167347  16.5210828  57.6487651
  69.1052757  25.6058320  56.8278141  69.2542321  25.0461236  56.1751545
  69.8852759  25.6850321  57.2110660  69.2426850  25.5343885  56.7875090
  71.6306057  25.7772963  58.1062632  71.5549729  25.1081773  58.6613420
  71.5595917  26.4790751  58.6203298  71.6086664  25.7817870  58.2639480
  72.4446696  10.5096267  58.6337649  72.9019310  11.2420241  58.7610442
  72.5203025  10.0862732  59.3924905  72.5237666  10.5553505  58.7638726
  64.6879687  10.7562087  59.7227093  64.1521877  10.1442445  60.0387860
  64.7497452  11.3310223  60.3760760  64.6175320  10.7509015  59.8662520
  72.2876304  24.2973962  48.9386238  73.0526196  24.0283605  48.6168902
  72.1854394  23.8123972  49.6556300  72.3857800  24.1863526  48.9966065
  70.3229074  12.4998371  55.4779473  69.5325149  12.3189831  55.7996809
  70.7189697  11.7225324  55.4609768  70.2645950  12.3585832  55.5232022
  74.8094965  21.3286145  40.9186187  75.5767950  21.3886270  40.5092039
  74.3626274  20.7566587  40.4342506  74.8568392  21.2522721  40.7863897
  75.7072760  20.1340801  53.2038919  75.0317762  19.9026033  53.7052306
  75.7165137  19.5261984  52.5781024  75.6091265  20.0099726  53.1855072
  72.8366904  14.9758630  59.9602972  72.7726046  15.8368587  59.8323109
  72.9764092  14.6590623  59.1598524  72.8482374  15.0558797  59.8231185
  77.7089495  22.9905934  45.4349097  77.7909332  23.7972920  45.1110548
  78.1939237  23.0101893  46.1589871  77.7926653  23.1126596  45.4935996
  71.5185998  17.6690769  54.1019175  71.0948247  17.8695268  53.3658194
  71.3430854  16.8219617  54.2143475  71.4296879  17.5739551  54.0092865
  71.0197692  29.1841282  56.5640632  71.5093622  28.4852072  56.3816297
  70.4481924  28.8865152  57.1516690  71.0082222  29.0367506  56.6241673
  66.8068443  18.1642821  49.5347148  66.9633062  18.0989624  50.3903140
  67.1469036  18.9391373  49.3225827  66.8801678  18.2692019  49.6301742
  73.3447588  17.5400704  48.4040511  73.8863133  17.0371086  48.8679131
  73.6594147  17.4865899  47.5929996  73.4711985  17.4580125  48.3524323
  71.5134038  22.9318056  45.6880539  71.5826858  22.0732594  45.8273539
  72.2922493  23.1489937  45.3599564  71.6386888  22.8370920  45.6597696
  74.4936857  12.4337009  58.4562811  74.7078827  11.7947923  57.9026165
  73.8770756  12.8782833  58.0270673  74.4342187  12.4047153  58.3113242
  75.9041525  25.3555757  49.9017032  75.5121317  25.0522472  49.1839898
  76.0594597  26.1924847  49.7121986  75.8695115  25.4339594  49.7673529
  63.3802705  15.3477771  49.8507915  63.7601670  15.7662316  49.1868182
  62.8058070  15.9291227  50.1576758  63.3514030  15.4955630  49.7984656
  76.0681200  21.9205746  49.8423063  75.7095855  22.0920389  50.6187095
  75.5819911  22.3818952  49.2851061  75.9439897  22.0144717  49.8748332
  70.8569565  17.6004912  42.3823297  71.1462090  18.3769794  42.6566871
  70.9441364  17.0893643  43.0837797  70.9123822  17.6396830  42.5265795
  77.2285939  22.8109642  60.7890264  77.8665660  22.3169838  60.4552720
  76.5860031  22.7387043  60.2042491  77.2280166  22.7268651  60.6532619
  77.2840196  23.5029450  57.4295620  78.0732574  23.1518515  57.5497702
  77.4583794  24.3165839  57.1672254  77.4260478  23.5715307  57.4083488
  67.0233506  16.9138176  54.4823409  66.1821513  16.8142050  54.6902303
  67.2323514  17.6833656  54.8337730  66.9298199  17.0130219  54.5650724
  64.5009073  14.5357713  52.3108160  64.1065771  14.6100725  51.5358270
  63.9449190  14.9215659  52.8616522  64.3611886  14.6039488  52.2775820
  70.8350171  14.8419575  53.7321007  70.5313309  14.2875564  54.3331414
  70.1329592  15.0211785  53.2449041  70.6866381  14.7864358  53.7490712
  69.8916268  12.1520095  48.2965709  70.1676003  11.4339008  47.8843276
  70.4914938  12.7505015  48.0886815  70.0209533  12.1340466  48.2046470
  68.8968522  22.0569296  58.4393105  68.7888877  22.0671358  59.3055163
  69.1064304  22.8824076  58.2498058  68.9118633  22.1810371  58.5397196
  66.9142314  19.3081938  55.9015042  66.3230247  19.9491437  55.8718057
  67.6763338  19.7319556  55.8746342  66.9390575  19.4657777  55.8930189
  67.3102937  10.4683936  56.5683060  67.7704419  10.5422866  57.3058184
  67.3559044  11.2665190  56.2182881  67.3853492  10.5978083  56.6255816
  68.9586287  11.1350631  61.1355087  68.5671852  10.4883978  61.5710865
  69.1272149  11.7262066  61.7549342  68.9257197  11.1264899  61.2917793
  76.6731830  24.7591250  53.3347067  76.4751519  25.2482064  52.6403278
  76.0519541  24.9632491  53.9131200  76.5519395  24.8607788  53.3170290
  70.7339809  16.5276147  47.6757311  71.4781854  16.9150423  47.9140261
  70.8800505  15.6833572  47.8397799  70.8650394  16.4606620  47.7351281
  73.7217685  12.1001620  53.5751230  73.2477639  11.5743382  54.0856541
  74.0935820  11.5531093  53.0066092  73.7067574  11.9417617  53.5666377
  64.0990715  14.0973127  58.9434776  64.9616328  13.9968836  58.8572106
  63.7682498  13.5167836  58.3820348  64.1775911  13.9964754  58.8480182
  75.6501184  12.9938175  46.6376984  75.1224203  13.0766919  45.9482693
  76.1096892  13.7356046  46.6341629  75.6403035  13.1158837  46.5351679
  67.4592501  12.9215576  55.6045194  66.8345571  12.9333968  54.9971147
  67.1238096  13.3975751  56.2536434  67.3177993  12.9934093  55.6101763
  67.6434249  11.2640694  41.6617879  67.2947054  11.9160420  42.1249429
  67.1630695  11.2497807  40.9341750  67.5204493  11.3583748  41.6228970
  64.1718176  20.9816036  57.0448958  63.6418101  20.2908475  57.0943933
  64.4443270  20.9726221  56.2161667  64.1342899  20.8783168  56.9296374
  75.2038267  21.5641738  45.7686641  75.9272466  22.0299851  45.6251214
  74.7638858  21.6315348  45.0184238  75.2453959  21.6425575  45.6371422
  74.3724422  18.4239281  57.0187330  73.7581415  17.8797331  57.3135965
  74.8891707  17.9103517  56.5393146  74.3580084  18.2675690  56.9911558
  73.6120719  19.4943551  54.7531629  73.1848327  18.8693269  54.3197064
  73.6045663  19.2118472  55.5790636  73.5479860  19.3596331  54.8111456
  66.7283246  14.5308724  57.8220063  66.8876733  13.7752048  58.2271785
  66.5476140  15.0799663  58.4760800  66.7248605  14.5002537  57.9782769
  71.9406429  10.3712305  54.9674163  71.9648916   9.8372417  54.2786943
  72.1917902   9.8629614  55.6299753  71.9816347  10.2173209  54.9638807
  59.4514019  17.6543800  54.4017307  59.3457468  17.6090644  53.5369391
  58.7014239  17.9997581  54.6831592  59.3249621  17.6984708  54.3154636
  68.2207751   9.0983123  54.3479907  68.2606123   9.5992330  55.0614614
  67.3957416   9.1893517  54.0785830  68.1047277   9.1864940  54.4130445
  70.4037364  18.6643863  62.4500202  69.5532994  18.8015578  62.5857847
  70.5665492  17.9307642  62.8947903  70.3021227  18.5757965  62.5355801
  69.6422114  15.6143633  56.6453806  68.8114044  15.7817451  56.4389054
  69.5873632  15.2379584  57.4302691  69.5111529  15.5833364  56.7302334
  68.0158158  13.8899225  47.1743924  68.1561119  14.3871689  47.8772565
  68.5140691  13.1885519  47.3158137  68.1099239  13.8601203  47.2995503
  68.0458381  14.7566336  44.5036501  68.6803460  15.3526761  44.4385962
  68.1283991  14.4569793  45.3182371  68.1514932  14.8007244  44.6139587
  69.6237363  10.6880311  44.4781943  69.9453204  10.2083394  43.8241205
  69.8864307  11.4979957  44.2872754  69.7103389  10.7370209  44.3537435
  72.8534336  21.7099185  57.9980759  72.3459427  22.2635032  58.4421389
  72.5560982  21.7707475  57.1799533  72.7339221  21.8005497  57.9429215
  64.5511368  16.9534176  47.7726047  65.0603598  17.5498684  48.1537352
  65.0245641  16.6860150  47.0902466  64.6954744  17.0019992  47.7280569
  75.4642117  25.6262443  45.9284702  74.7471426  25.4523305  45.4631940
  76.1148854  25.3915015  45.3960188  75.4543967  25.5658236  45.7813920
  78.0490088  14.5027032  49.6726007  77.3781278  15.0456734  49.5439073
  78.7429838  14.9721887  49.4307702  78.0518955  14.6525303  49.6181535
  72.0976821  26.6423744  54.9037766  71.8742476  25.8842573  55.2721792
  71.6086665  26.6721765  54.1818205  71.9920270  26.5345968  54.8514507
  66.9101900  13.5890435  50.6399227  66.1913889  14.0054568  50.9072091
  67.2814262  14.1544674  50.0890865  66.8593832  13.7339716  50.5982034
  76.2101481  14.2218284  56.5301223  76.1899408  14.0401579  57.3836002
  76.2580682  15.0930302  56.5060806  76.2136122  14.3234822  56.6524517
  74.1547811  20.8105476  62.4549699  74.1143666  20.1655153  61.8694855
  74.9671129  20.7542093  62.7675111  74.2690964  20.7064443  62.4146648
  70.7455278  26.8624202  52.3574850  70.3315677  26.1998332  51.9678692
  71.4302653  27.0102061  51.8370544  70.7853650  26.7864860  52.2231347
  74.1120573  26.0214287  53.1098467  73.7136856  26.1316557  52.3419287
  73.4971792  26.2296353  53.6925027  73.9619462  26.0687855  53.0829766
  72.6848475  12.6288435  45.9772606  72.0913314  12.9505431  45.4257173
  72.7223752  11.7829530  45.7693713  72.6022864  12.5512763  45.8655378
  75.5606291  12.5867939  49.4074357  75.3319984  12.6100641  48.5652715
  75.8204367  11.7625406  49.5269367  75.5652479  12.4684019  49.2999554
  69.8425520  14.4402412  59.0099457  69.3304423  13.8323595  59.3684488
  69.6705016  15.1559005  59.4773433  69.7415157  14.4565712  59.1315681
  64.6891234  12.8839988  61.6601819  64.5193825  13.5441363  61.1150025
  64.2457184  13.0946549  62.3814308  64.5990568  13.0125970  61.6863448
  68.6151054  11.1244486  50.7028552  69.0908420  11.4861566  50.0678733
  68.1139653  11.7800953  50.9828695  68.6116413  11.2738675  50.6505293
  61.5893299  15.7886853  56.9190309  61.0420018  15.1187499  57.0371177
  62.3785677  15.4216701  56.9833776  61.6245482  15.6351840  56.9459009
  71.4377707  15.4494310  62.4153720  72.1889034  15.7645987  62.7293274
  71.6300284  15.2473481  61.5887641  71.5769121  15.4661692  62.3397115
  70.6577707  13.2685686  44.0701936  71.0376672  13.2865315  43.2853051
  69.9170303  13.7139674  43.9492784  70.6046545  13.3367460  43.9365505
  60.3480268  15.0007661  54.0736332  60.1702029  14.5484270  54.7991247
  60.0599290  15.8033823  54.2574809  60.2793221  15.0530219  54.2079834
  76.0103849  16.2565379  53.3113722  76.5057515  15.5388374  53.2717742
  75.2003625  15.9536176  53.1968209  75.9647743  16.1063025  53.2887448
  71.4562461  20.1063192  45.4610726  70.6473784  19.7829865  45.4144036
  71.9637370  19.3996414  45.3938975  71.4112128  19.9544508  45.4441021
  62.0852738  17.5335385  51.1858091  61.2198258  17.5221075  51.0740862
  62.1851554  17.3465608  52.0329230  61.9726905  17.5041446  51.2947035
  78.0755668  19.0069066  55.9990851  78.5010740  18.4843488  55.4461276
  77.7112588  19.6049903  55.4779474  78.0842271  19.0179293  55.8399860
  67.7109748  27.3033284  54.7588196  68.0256307  28.1169672  54.7665978
  68.1203161  26.9183502  55.4270355  67.8177846  27.3661986  54.8592288
  74.6634268  22.7203330  52.3292008  75.1345446  23.4343593  52.4981993
  74.9994446  22.1202080  52.8651878  74.7829383  22.7374795  52.4324384
  75.3008214  22.5121264  59.0919701  74.7529160  21.8879148  58.8239766
  75.7621243  22.7015536  58.3763780  75.2875423  22.4480315  58.9470132
  70.6496877   9.4947214  46.7529568  71.4712572   9.6645527  46.5111263
  70.1866528   9.6494475  46.0295865  70.7028040   9.5428947  46.6101212
  65.0522768  21.2506392  54.4066805  65.6567626  21.2102226  53.7780625
  64.8450081  22.0977544  54.4370860  65.1111665  21.3694394  54.3182921
  74.8666540  23.5172337  55.6229042  75.6864914  23.3735303  55.8845337
  74.5860618  24.1418536  56.1645480  74.9463284  23.5882689  55.7416981
  60.2874050  20.2341010  54.2765728  60.1898328  19.4237281  54.5855784
  61.0702920  20.2132803  53.8911996  60.3890187  20.1108100  54.2652591
  73.6970816  35.8314236  50.9977186  73.4621000  34.9981889  50.8909455
  73.8356456  36.1118902  50.1838387  73.6826478  35.7497740  50.8619541
  75.9960903  27.9999967  53.8961494  75.3765935  27.4092614  53.7271509
  75.8944767  28.5911402  53.2625817  75.8898579  28.0004050  53.7766484
  75.7230036  31.5452249  56.1405063  75.5988733  32.1314694  56.7754882
  76.3748321  31.0512444  56.4417338  75.8003686  31.5591053  56.2790992
  75.2588140  40.7099907  52.2733393  74.7755719  41.4350397  52.2492976
  76.0711459  41.0076037  52.3843550  75.3078888  40.8602261  52.2860672
  78.1132338  41.2256083  52.4253672  78.8152917  40.7108072  52.4826429
  78.0329821  41.5530235  53.2300548  78.2056098  41.1970309  52.5526465
  77.8268681  25.5774513  44.4916293  77.6444254  25.7946394  43.6657285
  78.6894294  25.6913526  44.5474907  77.9273271  25.6264411  44.3770780
  77.4383113  37.4162435  51.9339281  78.2772012  37.6485368  51.9813042
  77.4694882  36.5466747  51.8646316  77.5664831  37.3219382  51.9303925
  78.0635816  37.8363310  56.2352586  78.6034041  37.6934441  56.9055958
  77.3805762  38.2360061  56.6036612  78.0427970  37.8742981  56.3887008
  73.4672961  34.0563601  56.3887008  73.2011376  33.2402718  56.5477998
  73.4811525  34.1016757  55.5182523  73.4297683  33.9420506  56.2840490
  77.3730708  28.8548686  43.0038766  76.6588885  28.5686865  43.4161198
  77.8574677  29.1945311  43.6445153  77.3390071  28.8630335  43.1594401
  78.2171568  27.5941979  59.0354015  77.5243364  27.1238959  59.2814747
  78.8331895  27.3680284  59.6095722  78.2056097  27.4909111  59.1563168
  73.8766375  34.8422381  53.6698752  73.6941948  34.8169267  52.8171044
  74.6116044  35.3121318  53.7087661  73.9580439  34.9083743  53.5496670
  76.9412126  31.5607383  60.1780860  77.6652099  31.5460414  60.6645755
  77.0428263  32.2702739  59.6802829  77.0630336  31.6632087  60.1759647
  73.8437285  31.7215881  53.8197818  74.4210788  31.5852332  54.4590064
  73.1451347  31.2651665  54.0743403  73.8258307  31.6338147  53.9520108
  69.3196118  30.5727774  50.5345637  69.4056370  30.1959642  51.3159167
  69.9471916  30.1988220  50.0565595  69.4252669  30.4613256  50.5791114
  74.9072077  39.3419507  54.5876998  74.9476222  39.6134358  53.7596777
  75.4666601  39.8661415  55.0034786  74.9955423  39.4595262  54.5268886
  76.3586663  37.9261456  49.4130924  75.5324781  38.1723193  49.2865202
  76.4198654  37.8473537  50.2792982  76.2460830  37.9506405  49.5219868
  78.5762687  23.9930397  50.3726364  77.7085112  24.0652997  50.4383973
  78.8637891  24.7952476  50.5614339  78.4902435  24.1224544  50.4101130
  77.9908355  34.6079035  52.4465805  77.7021604  33.9816507  52.9811532
  78.8591703  34.5499323  52.5130485  78.0768607  34.5066580  52.5356759
  76.5030039  27.4688656  47.8143240  76.2154835  27.0989927  47.0775187
  77.1900507  27.9383512  47.5526945  76.5618936  27.4835626  47.6658316
  76.9891327  33.7399677  58.3664785  77.5012424  34.0183930  57.7173544
  76.7027670  34.4788971  58.7327598  77.0226191  33.8902031  58.3254663
  74.0758234  28.2469869  48.6628521  74.1774370  29.0496030  48.9909497
  74.8714120  28.0457205  48.3651602  74.2086139  28.3355768  48.6663876
  74.8921966  28.3617047  56.4049643  74.7507458  27.5100988  56.5294151
  75.1762529  28.4045708  55.5811849  74.9129812  28.2416797  56.3017267
  75.6612271  26.2747395  59.7227093  75.1254461  25.6627753  60.0387860
  75.7230036  26.8495531  60.3760760  75.5907904  26.2694322  59.8662520
  77.7801027  33.6828129  49.5347148  77.9365646  33.6174932  50.3903140
  78.1201620  34.4576681  49.3225827  77.8534262  33.7877327  49.6301742
  74.3535288  30.8663079  49.8507915  74.7334253  31.2847624  49.1868182
  73.7790653  31.4476535  50.1576758  74.3246613  31.0140938  49.7984656
  77.9966090  32.4323484  54.4823409  77.1554096  32.3327358  54.6902303
  78.2056098  33.2018964  54.8337730  77.9030782  32.5315527  54.5650724
  75.4741657  30.0543021  52.3108160  75.0798355  30.1286033  51.5358270
  74.9181774  30.4400967  52.8616522  75.3344469  30.1224796  52.2775820
  77.8874898  34.8267246  55.9015042  77.2962831  35.4676745  55.8718057
  78.6495921  35.2504864  55.8746342  77.9123158  34.9843085  55.8930189
  78.2835521  25.9869244  56.5683060  78.7437002  26.0608174  57.3058184
  78.3291627  26.7850498  56.2182881  78.3586076  26.1163391  56.6255816
  75.0723298  29.6158435  58.9434776  75.9348911  29.5154144  58.8572106
  74.7415081  29.0353144  58.3820348  75.1508495  29.5150061  58.8480182
  78.4325084  28.4400884  55.6045194  77.8078154  28.4519276  54.9971147
  78.0970679  28.9161059  56.2536434  78.2910576  28.5119401  55.6101763
  78.6166833  26.7826002  41.6617879  78.2679637  27.4345727  42.1249429
  78.1363279  26.7683115  40.9341750  78.4937077  26.8769056  41.6228970
  75.1450760  36.5001344  57.0448958  74.6150684  35.8093783  57.0943933
  75.4175853  36.4911529  56.2161667  75.1075482  36.3968476  56.9296374
  77.7015830  30.0494032  57.8220063  77.8609316  29.2937356  58.2271785
  77.5208723  30.5984971  58.4760800  77.6981189  30.0187845  57.9782769
  70.4246602  33.1729108  54.4017307  70.3190051  33.1275952  53.5369391
  69.6746822  33.5182889  54.6831592  70.2982205  33.2170016  54.3154636
  75.5243952  32.4719484  47.7726047  76.0336181  33.0683992  48.1537352
  75.9978224  32.2045458  47.0902466  75.6687328  32.5205300  47.7280569
  77.8834484  29.1075743  50.6399227  77.1646473  29.5239876  50.9072091
  78.2546846  29.6729982  50.0890865  77.8326416  29.2525024  50.5982034
  75.6623818  28.4025296  61.6601819  75.4926408  29.0626671  61.1150025
  75.2189768  28.6131857  62.3814308  75.5723151  28.5311278  61.6863448
  72.5625882  31.3072161  56.9190309  72.0152602  30.6372807  57.0371177
  73.3518261  30.9402009  56.9833776  72.5978066  31.1537148  56.9459009
  71.3212852  30.5192969  54.0736332  71.1434613  30.0669578  54.7991247
  71.0331874  31.3219130  54.2574809  71.2525805  30.5715527  54.2079834
  73.0585322  33.0520693  51.1858091  72.1930841  33.0406383  51.0740862
  73.1584138  32.8650916  52.0329230  72.9459489  33.0226754  51.2947035
  76.0255352  36.7691700  54.4066805  76.6300209  36.7287534  53.7780625
  75.8182664  37.6162852  54.4370860  76.0844249  36.8879702  54.3182921
  71.2606634  35.7526317  54.2765728  71.1630912  34.9422589  54.5855784
  72.0435504  35.7318111  53.8911996  71.3622771  35.6293408  54.2652591
  73.3921640  12.7692368  37.9317233  73.1571824  11.9360020  37.8249502
  73.5307280  13.0497033  37.1178434  73.3777302  12.6875871  37.7959588
  74.9538964  17.6478038  39.2073439  74.4706543  18.3728528  39.1833023
  75.7662283  17.9454168  39.3183597  75.0029712  17.7980392  39.2200719
  77.8083162  18.1634214  39.3593719  78.5103741  17.6486203  39.4166476
  77.7280645  18.4908366  40.1640594  77.9006922  18.1348441  39.4866511
  77.1333937  14.3540566  38.8679327  77.9722836  14.5863499  38.9153089
  77.1645706  13.4844878  38.7986363  77.2615655  14.2597513  38.8643972
  77.7586640  14.7741442  43.1692633  78.2984865  14.6312573  43.8396005
  77.0756586  15.1738192  43.5376659  77.7378794  14.8121112  43.3227055
  73.1623785  10.9941732  43.3227054  72.8962200  10.1780849  43.4818045
  73.1762349  11.0394888  42.4522570  73.1248507  10.8798637  43.2180536
  73.5717199  11.7800512  40.6038799  73.3892772  11.7547398  39.7511091
  74.3066868  12.2499450  40.6427707  73.6531263  11.8461874  40.4836717
  74.6022901  16.2797638  41.5217044  74.6427046  16.5512489  40.6936824
  75.1617425  16.8039546  41.9374832  74.6906247  16.3973393  41.4608933
  76.0537487  14.8639587  36.3470970  75.2275605  15.1101324  36.2205249
  76.1149478  14.7851668  37.2133029  75.9411654  14.8884536  36.4559915
  78.7742232  19.4583850  37.1150150  78.5542527  19.1681205  37.9076817
  78.5536754  18.7998805  36.5868062  78.7089826  19.3183558  37.1539059
  77.8891452  13.1852418  35.3048217  78.6437420  13.5665457  35.5183679
  77.2962065  13.6363561  35.7594913  77.9128166  13.3081245  35.4031095
  77.5825722  11.7645378  42.8355089  76.9913655  12.4054876  42.8058104
  78.3446745  12.1882995  42.8086388  77.6073982  11.9221216  42.8270236
  74.8401584  13.4379475  43.9789005  74.3101508  12.7471914  44.0283980
  75.1126677  13.4289660  43.1501714  74.8026306  13.3346607  43.8636421
  70.1197426  10.1107239  41.3357354  70.0140875  10.0654084  40.4709438
  69.3697646  10.4561020  41.6171638  69.9933029  10.1548147  41.2494683
  78.3793156  19.7596723  41.6928243  78.6939715  20.5733111  41.7006025
  78.7886569  19.3746941  42.3610402  78.4861254  19.8225425  41.7932335
  75.7206176  13.7069831  41.3406851  76.3251033  13.6665665  40.7120672
  75.5133488  14.5540983  41.3710907  75.7795073  13.8257834  41.2522968
  70.9557458  12.6904449  41.2105775  70.8581736  11.8800720  41.5195831
  71.7386328  12.6696242  40.8252043  71.0573594  12.5671539  41.1992637
  26.4948575  30.4691658  74.4457185  26.4642579  31.3236295  74.6175455
  27.0929923  30.1686951  75.0043329  26.5785733  30.5508154  74.5531987
  14.0789399  39.0930027  74.9647347  13.3272299  38.7145565  74.7363392
  14.5275411  39.1248460  74.2166157  14.0339066  39.0415634  74.8204849
  19.5314359  39.5155396  70.3932894  19.1965728  40.1932318  69.9577116
  20.0441229  39.1260708  69.8049766  19.5579940  39.5579975  70.2419686
  19.0718650  41.4669665  76.3344006  19.4558030  42.0356564  75.7948781
  19.0077792  40.7419175  75.8549822  19.1192078  41.4445128  76.1837868
  24.3165149  33.0443960  72.7175495  24.2004675  33.7951646  73.1467633
  25.1121036  32.7867913  72.9671582  24.4169739  33.1178807  72.8179587
  15.4974895  44.0226008  78.6324976  16.1412350  44.4639172  79.0221134
  15.8231150  43.2179434  78.5455234  15.6406724  43.9691203  78.6770453
  16.1995475  37.0337983  74.0044837  16.5211316  37.5743190  73.4006145
  16.8467571  36.4634754  74.1367127  16.3421530  37.0297158  73.9351873
  18.4385118  35.4224423  74.0759016  18.8778754  34.8141523  74.5213788
  18.2889781  35.0431796  73.3044481  18.4806584  35.2762894  74.0278183
  22.0394455  33.7751604  71.0289785  21.9545750  34.6312571  71.1739354
  22.5278838  33.4995928  71.6971944  22.0983352  33.8608926  71.1491866
  22.9712888  30.3936398  72.5287520  22.4424359  30.6096032  73.1884826
  23.4937908  31.0872537  72.4488489  22.9701341  30.5279535  72.6143119
  28.4260941  35.9682703  77.9020564  27.5958644  36.1793347  78.0653981
  28.3770193  35.1419757  77.6262848  28.2967676  35.8772309  77.8857930
  14.8612496  34.2899615  71.3294988  14.2769711  34.7949647  71.7360852
  14.4582591  34.0642002  70.5891580  14.7151800  34.3307863  71.2800013
  19.3189710  30.5365267  69.8063909  19.5585714  30.7443251  68.9939252
  19.6405551  29.7322776  69.9152853  19.4026868  30.4479368  69.7024462
  25.6825256  36.6382057  78.0385280  25.2460488  36.6418800  78.7944252
  25.3488171  37.3187556  77.6064858  25.5687876  36.7394513  78.0866113
  12.5299092  28.1503155  68.8624033  11.8157269  27.8641334  69.2746465
  13.0143061  28.4899780  69.5030420  12.4958455  28.1584804  69.0179667
  28.8169602  33.3562977  76.9304917  29.4786036  32.7953646  76.8300826
  28.1761014  32.8615008  77.2557609  28.8198470  33.1999386  76.9637258
  19.7046410  36.6533109  69.2385841  20.1197558  36.3218132  68.5470336
  18.8738340  36.4202011  69.1105977  19.6434419  36.5704365  69.1176688
  25.1034433  34.3728360  76.6716906  25.3390022  34.5173558  75.8443757
  25.2523997  35.1370768  77.0648420  25.1600236  34.5067414  76.6080510
  26.9324890  33.2130025  74.5086510  27.2633107  33.7457666  73.9026605
  27.5057978  33.2668913  75.1648461  27.0658569  33.2999594  74.5164292
  22.3979800  32.9043668  68.4247042  22.3159963  32.9745855  69.2902029
  23.0359521  33.4673412  68.2330783  22.4799637  32.9982639  68.5236992
  28.0404241  28.4540522  76.0126672  27.7840806  27.6420464  75.8224554
  28.8833555  28.4618090  75.7856859  28.1270267  28.3352520  75.9511489
  19.5019910  32.9264122  71.4355649  20.3160549  33.2179015  71.3238420
  19.4379052  32.2723985  70.8613942  19.6122649  32.8729317  71.3344486
  16.0130634  31.6187930  70.9002850  16.3975786  31.3995636  71.6519395
  15.7642254  32.4450875  71.0303926  16.0332706  31.7086076  71.0303927
  16.2953876  39.8392805  72.9735220  16.5852175  39.4481787  72.2494447
  17.0257357  40.0209510  73.4140496  16.4460760  39.8086619  72.9318027
  14.2359792  41.8160188  76.0395370  14.0160087  41.5257543  76.8322037
  14.0154314  41.1575143  75.5113282  14.1707386  41.6759896  76.0784279
  16.4027748  43.1889578  74.8226062  17.0551806  42.6566020  75.0517089
  15.7053356  42.8358230  75.2093936  16.3958465  43.0579101  74.9138230
  24.3967666  35.5093992  74.1657042  24.9625699  36.1687202  74.0815585
  23.7495569  35.8543690  74.6373444  24.3846422  35.6575933  74.2229798
  20.8674244  38.4532776  73.5894121  20.6260920  37.7200637  73.1821186
  21.0475577  39.0019633  72.9360454  20.8581868  38.4255167  73.4324344
  25.5930364  35.5600219  70.9582678  25.2137172  34.7737357  70.9511968
  24.9296609  36.1087076  70.8154322  25.4388839  35.5245043  70.9363475
  18.4177272  39.1113739  74.7971504  19.1827163  38.8423382  74.4754169
  18.3155362  38.6263749  75.5141567  18.5158767  39.0003303  74.8551332
  20.9395932  36.1425922  66.7771454  21.7068918  36.2026047  66.3677306
  20.4927241  35.5706364  66.2927772  20.9869360  36.0662498  66.6449164
  23.8390463  37.8045711  71.2934364  23.9210300  38.6112697  70.9695815
  24.3240205  37.8241670  72.0175138  23.9227620  37.9266373  71.3521263
  19.4748555  32.3540481  74.2625778  20.0164101  31.8510863  74.7264398
  19.7895114  32.3005676  73.4515263  19.6012953  32.2719902  74.2109590
  17.6435005  37.7457833  71.5465806  17.7127825  36.8872371  71.6858806
  18.4223460  37.9629714  71.2184830  17.7687855  37.6510697  71.5182963
  22.0342493  40.1695534  75.7602299  21.6422284  39.8662249  75.0425165
  22.1895565  41.0064624  75.5707253  21.9996083  40.2479371  75.6258796
  22.1982167  36.7345523  75.7008330  21.8396822  36.9060166  76.4772362
  21.7120878  37.1958729  75.1436328  22.0740864  36.8284494  75.7333599
  16.9870533  32.4144689  68.2408564  17.2763058  33.1909571  68.5152138
  17.0742332  31.9033420  68.9423063  17.0424789  32.4536607  68.3851062
  22.8032798  39.5731027  79.1932333  22.6052487  40.0621841  78.4988545
  22.1820509  39.7772268  79.7716467  22.6820362  39.6747565  79.1755557
  21.7802152  27.8077952  72.4962251  21.2525170  27.8906696  71.8067960
  22.2397860  28.5495823  72.4926896  21.7704002  27.9298614  72.3936946
  13.7735217  26.0780471  67.5203146  13.4248021  26.7300197  67.9834695
  13.2931663  26.0637584  66.7927017  13.6505461  26.1723525  67.4814237
  21.3339234  36.3781515  71.6271908  22.0573433  36.8439628  71.4836481
  20.8939825  36.4455125  70.8769505  21.3754927  36.4565352  71.4956689
  14.1759348  29.5706113  70.3621767  14.8104428  30.1666538  70.2971229
  14.2584959  29.2709570  71.1767638  14.2815899  29.6147021  70.4724854
  21.5943084  40.4402220  71.7869969  20.8772394  40.2663082  71.3217206
  22.2449822  40.2054792  71.2545455  21.5844935  40.3798013  71.6399187
  16.8756246  41.6763979  78.2160117  16.4616645  41.0138109  77.8263959
  17.5603620  41.8241838  77.6955811  16.9154618  41.6004637  78.0816614
  20.2421540  40.8354064  78.9683734  19.8437823  40.9456334  78.2004554
  19.6272760  41.0436130  79.5510293  20.0920429  40.8827632  78.9415033
  27.9763383  35.4106031  72.3526824  28.3596989  36.1597387  72.5824921
  27.1807496  35.6571850  72.0938813  27.9157165  35.5575725  72.3484398
  16.7878674  28.0825463  69.9287203  17.1677639  28.1005092  69.1438318
  16.0471270  28.5279451  69.8078050  16.7347512  28.1507237  69.7950771
  17.5863428  34.9202969  71.3195993  16.7774751  34.5969642  71.2729303
  18.0938337  34.2136191  71.2524242  17.5413095  34.7684285  71.3026288
  37.4681158  45.9876966  74.4457185  37.4375163  46.8421603  74.6175455
  38.0662507  45.6872258  75.0043329  37.5518316  46.0693462  74.5531987
  30.6680843  45.0752617  79.2010116  29.8118739  45.2361115  79.2519232
  30.7148497  44.2044681  79.2215177  30.5479954  44.9703419  79.2116182
  25.0521983  54.6115335  74.9647347  24.3004882  54.2330873  74.7363392
  25.5007994  54.6433768  74.2166157  25.0071650  54.5600942  74.8204849
  30.5046943  55.0340704  70.3932894  30.1698311  55.7117626  69.9577116
  31.0173813  54.6446016  69.8049766  30.5312524  55.0765282  70.2419686
  30.0451234  56.9854973  76.3344006  30.4290613  57.5541872  75.7948781
  29.9810375  56.2604483  75.8549822  30.0924661  56.9630436  76.1837868
  33.5132664  47.1344661  81.8441767  34.0588624  47.8129747  81.9035737
  33.4549540  46.9932122  80.9843349  33.5848578  47.2136662  81.7253828
  26.6306739  54.6233727  77.2310120  26.7317102  53.8134081  77.5407247
  26.0348484  54.5290673  76.6009798  26.5579278  54.4898755  77.1836358
  35.2897733  48.5629268  72.7175495  35.1737259  49.3136954  73.1467633
  36.0853619  48.3053221  72.9671582  35.3902322  48.6364115  72.8179587
  26.4707479  59.5411316  78.6324976  27.1144934  59.9824480  79.0221134
  26.7963734  58.7364742  78.5455234  26.6139307  59.4876511  78.6770453
  19.8271783  50.6454013  76.8562453  19.5921968  49.8121666  76.7494722
  19.9657424  50.9258679  76.0423654  19.8127446  50.5637517  76.7204808
  22.1261871  42.8139744  79.7546761  21.5066902  42.2232391  79.5856776
  22.0245734  43.4051179  79.1211084  22.0199546  42.8143827  79.6351751
  27.1728058  52.5523291  74.0044837  27.4943899  53.0928498  73.4006145
  27.8200155  51.9820062  74.1367127  27.3154113  52.5482466  73.9351873
  29.2229766  44.5539286  74.0879224  29.9209931  44.7327413  74.5800687
  29.5382099  44.0309625  73.4649613  29.3725103  44.5033058  74.0681234
  21.8531004  46.3592026  81.9990330  21.7289701  46.9454471  82.6340149
  22.5049288  45.8652221  82.3002605  21.9304653  46.3730830  82.1376259
  29.4117702  50.9409731  74.0759016  29.8511337  50.3326831  74.5213788
  29.2622365  50.5617104  73.3044481  29.4539167  50.7948202  74.0278183
  26.8789345  49.5353743  81.2777841  27.5238347  49.0426186  80.9588790
  27.1191122  49.6778529  82.1043919  27.0099930  49.4831185  81.3527374
  29.4175436  52.3808649  80.9284734  29.6998679  51.5860054  80.7071489
  30.1461596  52.8589236  80.9489795  29.5665000  52.3343245  80.8987749
  27.3956630  39.9231683  78.1700499  27.0659960  40.3742826  77.5004197
  26.7201632  39.8447846  78.7173505  27.2467066  39.9782818  78.1523722
  33.0127038  49.2936912  71.0289785  32.9278333  50.1497879  71.1739354
  33.5011421  49.0181236  71.6971944  33.0715936  49.3794234  71.1491866
  34.6033038  35.9117205  76.4150109  34.2886479  36.6020684  76.8470532
  34.0859979  35.8561988  75.7135610  34.4797508  36.0052094  76.3747058
  33.9445471  45.9121706  72.5287520  33.4156943  46.1281340  73.1884826
  34.4670491  46.6057845  72.4488489  33.9433924  46.0464843  72.6143119
  39.3993524  51.4868011  77.9020564  38.5691227  51.6978654  78.0653981
  39.3502777  50.6605065  77.6262848  39.2700260  51.3957617  77.8857930
  25.8345079  49.8084923  71.3294988  25.2502294  50.3134954  71.7360852
  25.4315174  49.5827310  70.5891580  25.6884383  49.8493171  71.2800013
  21.3889108  55.5239684  78.1318659  20.9056686  56.2490174  78.1078243
  22.2012426  55.8215814  78.2428817  21.4379856  55.6742038  78.1445939
  27.4603262  54.3171865  80.7368474  26.9430204  53.9579280  80.1329782
  28.1577653  53.7934039  80.7474540  27.4868843  54.1869553  80.6498733
  30.2922294  46.0550575  69.8063909  30.5318297  46.2628559  68.9939252
  30.6138135  45.2508084  69.9152853  30.3759452  45.9664676  69.7024462
  25.6012584  37.9843971  73.6523446  26.3558552  38.3522288  73.4140497
  25.4240119  38.3583525  74.4202626  25.6867062  38.0942159  73.7308335
  24.2433305  56.0395860  78.2838939  24.9453884  55.5247849  78.3411696
  24.1630788  56.3670011  79.0885814  24.3357066  56.0110086  78.4111731
  38.8947483  44.1338411  81.6970986  38.0575904  44.2040599  81.9318580
  38.8635714  44.1362906  80.8245288  38.7665765  44.1448638  81.6030534
  23.9569649  40.3914290  70.3501559  23.7745222  40.6086171  69.5242552
  24.8195262  40.5053303  70.4060174  24.0574238  40.4404188  70.2356046
  23.5684081  52.2302212  77.7924547  24.4072980  52.4625145  77.8398309
  23.5995850  51.3606524  77.7231583  23.6965798  52.1359159  77.7889192
  24.1936784  52.6503087  82.0937853  24.7335009  52.5074218  82.7641225
  23.5106730  53.0499838  82.4621879  24.1728937  52.6882758  82.2472275
  29.6369368  37.3940701  73.3850583  30.3655528  37.2156656  72.9388740
  29.7264261  38.2358780  73.5957761  29.7576030  37.4924579  73.3504101
  33.6177668  48.3294088  77.2882877  34.3735184  48.7625602  77.3271786
  33.7239993  47.6798858  77.8617513  33.7447839  48.2971572  77.3780903
  36.6557840  52.1567365  78.0385280  36.2193071  52.1604108  78.7944252
  36.3220755  52.8372864  77.6064858  36.5420460  52.2579821  78.0866113
  36.5755322  39.1981193  80.2814708  37.2181231  39.2679298  80.8676623
  36.8278343  38.5310416  79.7794250  36.7077455  39.1107542  80.2941987
  23.5031676  43.6688463  68.8624033  22.7889853  43.3826642  69.2746465
  23.9875644  44.0085088  69.5030420  23.4691039  43.6770112  69.0179667
  39.7902186  48.8748285  76.9304917  40.4518620  48.3138954  76.8300826
  39.1493598  48.3800316  77.2557609  39.7931053  48.7184694  76.9637258
  30.6778994  52.1718417  69.2385841  31.0930142  51.8403440  68.5470336
  29.8470923  51.9387319  69.1105977  30.6167002  52.0889672  69.1176688
  20.0067342  49.6562158  79.5284019  19.8242916  49.6309044  78.6756311
  20.7417011  50.1261095  79.5672927  20.0881406  49.7223520  79.4081937
  36.0767017  49.8913668  76.6716906  36.3122606  50.0358866  75.8443757
  36.2256580  50.6556076  77.0648420  36.1332820  50.0252722  76.6080510
  37.9057473  48.7315333  74.5086510  38.2365690  49.2642974  73.9026605
  38.4790561  48.7854221  75.1648461  38.0391152  48.8184902  74.5164292
  33.1189362  46.5780236  75.1910090  33.2136217  47.3169530  75.6449716
  32.4948206  46.1497712  75.6244655  33.0398392  46.6241557  75.3218238
  19.9738253  46.5355658  79.6783085  20.5511755  46.3992109  80.3175331
  19.2752314  46.0791442  79.9328670  19.9559274  46.4477924  79.8105375
  33.3712384  48.4228976  68.4247042  33.2892546  48.4931163  69.2902029
  34.0092104  48.9858720  68.2330783  33.4532221  48.5167947  68.5236992
  26.7305555  48.1889714  77.8921568  26.4724799  47.3561449  77.8652868
  26.7854038  48.4147327  77.0514069  26.7005333  48.0987485  77.7641705
  31.8106605  40.2918165  77.9925661  31.1062932  39.8027350  78.1509580
  31.8591579  40.3040639  77.1214106  31.7136657  40.2207813  77.8865001
  25.7040267  45.7427476  78.3786463  25.1289858  45.9019645  79.0150424
  25.3275943  45.1062885  77.9154914  25.5643079  45.6725289  78.4041022
  29.3713556  44.2150826  83.2378842  28.9827988  43.7905043  82.5831033
  28.7068254  44.4632975  83.7455868  29.2160483  44.1889547  83.2166710
  39.0136825  43.9725830  76.0126672  38.7573390  43.1605772  75.8224554
  39.8566139  43.9803397  75.7856859  39.1002850  43.8537828  75.9511489
  15.4497086  45.3867551  76.3930904  15.5357338  45.0099419  77.1744434
  16.0772883  45.0127997  75.9150862  15.5553637  45.2753033  76.4376381
  33.1939917  37.9125454  80.7502826  33.5750429  37.2303625  81.1370700
  32.3903201  37.6235056  80.5678490  33.1316379  37.7692503  80.7806882
  30.4752494  48.4449430  71.4355649  31.2893133  48.7364323  71.3238420
  30.4111635  47.7909293  70.8613942  30.5855233  48.3914625  71.3344486
  26.3460402  51.9170948  76.5627961  26.9834349  51.6782695  77.1079754
  26.7715474  52.1208107  75.8281121  26.5036568  51.9121958  76.5345118
  26.9863217  47.1373237  70.9002850  27.3708370  46.9180944  71.6519395
  26.7374837  47.9636183  71.0303926  27.0065290  47.2271384  71.0303927
  28.7281874  52.3943370  78.2421747  28.8020882  52.2318542  79.0963597
  29.5451380  52.5833560  77.9982229  28.8598233  52.3980113  78.3319773
  22.4887631  52.7401233  75.2716190  21.6625748  52.9862970  75.1450469
  22.5499622  52.6613314  76.1378249  22.3761798  52.7646182  75.3805135
  24.7063655  38.8070174  76.2311631  23.8386080  38.8792774  76.2969240
  24.9938859  39.6092253  76.4199606  24.6203403  38.9364321  76.2686397
  33.8296543  38.9548033  84.5622952  34.5750135  38.7657844  84.1486378
  33.4133848  39.4806271  84.0036809  33.8781518  39.0050179  84.4187526
  27.2686460  55.3578113  72.9735220  27.5584758  54.9667095  72.2494447
  27.9989941  55.5394818  73.4140496  27.4193344  55.3271927  72.9318027
  41.2058814  46.3257262  79.5128457  41.7566736  45.6925331  79.7525549
  41.1902930  46.8572655  80.2043962  41.2844011  46.3106210  79.6507316
  27.8581205  50.1595859  84.0588351  27.3592899  50.8711627  84.1373239
  28.6681429  50.4796526  84.0206513  27.9037312  50.3122708  84.0644919
  25.2092375  57.3345496  76.0395370  24.9892671  57.0442850  76.8322037
  24.9886897  56.6760451  75.5113282  25.1439970  57.1945204  76.0784279
  24.1209323  49.4218812  78.3051072  23.8322571  48.7956284  78.8396799
  24.9892671  49.3639100  78.3715752  24.2069575  49.3206357  78.3942026
  34.9087220  44.5653596  78.6233054  34.5651986  43.8443931  78.9740303
  35.0080263  44.3567447  77.7811412  34.8729263  44.4277799  78.5504734
  27.3760331  58.7074886  74.8226062  28.0284389  58.1751328  75.0517089
  26.6785940  58.3543538  75.2093936  27.3691049  58.5764409  74.9138230
  24.3241596  51.0614063  74.2293437  25.0787564  51.4427102  74.4428899
  23.7312209  51.5125207  74.6840133  24.3478310  51.1842891  74.3276315
  35.3700249  51.0279300  74.1657042  35.9358282  51.6872510  74.0815585
  34.7228153  51.3728998  74.6373444  35.3579006  51.1761241  74.2229798
  25.6439823  52.2322625  79.6033552  25.1220576  52.3722916  80.2885417
  26.0313843  51.4733289  79.7935670  25.6243523  52.1408149  79.7334629
  22.6331007  42.2828433  73.6728507  22.3455802  41.9129704  72.9360454
  23.3201475  42.7523289  73.4112212  22.6919904  42.2975403  73.5243583
  31.8406828  53.9718084  73.5894121  31.5993503  53.2385945  73.1821186
  32.0208160  54.5204941  72.9360454  31.8314452  53.9440475  73.4324344
  27.0706148  49.2626644  75.0015043  26.8748931  49.8701378  74.4075346
  27.2940494  48.5694588  74.5206717  27.0740789  49.2504169  74.8431124
  25.4684678  46.1481382  75.1195912  26.1907330  46.3122540  74.6599718
  24.9892671  46.8691046  75.0135251  25.5048409  46.2779611  75.0361526
  33.4278186  42.4845180  80.4992597  32.5889286  42.5106459  80.2630860
  33.4982553  43.1315916  81.0797943  33.3146579  42.5841306  80.5501713
  31.8747464  39.3830557  75.2320212  32.5773817  39.1838306  74.7540171
  31.6091653  38.6106500  75.5389056  31.9394096  39.2393523  75.2065654
  37.3035710  47.6913167  77.7853838  37.2169684  47.8468593  78.6388617
  36.8486190  48.3351243  77.4113243  37.2238966  47.8088922  77.8560945
  20.2059201  43.0609646  74.5213788  20.3075338  43.8635807  74.8494763
  21.0015088  42.8596982  74.2236868  20.3387107  43.1495545  74.5249143
  31.1761526  45.0123914  76.4079398  30.9296240  44.9319665  77.2416187
  31.5046649  44.2277382  76.2141925  31.1882769  44.8850180  76.5026921
  35.0709574  51.7207274  80.1966179  34.9323934  52.4188319  80.7014921
  34.2909572  51.5655930  79.8402361  34.9352801  51.8007440  80.2192453
  27.1358553  47.7480633  85.8202381  27.2801929  48.3281841  85.1845491
  27.4834202  48.1256930  86.5252235  27.2086014  47.8901337  85.8301376
  29.3078470  46.9470801  83.6027512  28.5601784  47.1401816  83.1975791
  29.4619996  46.1216021  83.3651634  29.2200898  46.8535913  83.5072918
  26.2086308  55.9383405  82.6863408  26.3575872  55.3786321  82.0336812
  26.9886310  56.0175406  83.0695926  26.3460402  55.8668970  82.6460357
  36.5662947  51.0785527  70.9582678  36.1869756  50.2922665  70.9511968
  35.9029193  51.6272384  70.8154322  36.4121422  51.0430351  70.9363475
  34.0207573  34.0211227  78.3616759  34.1391141  34.4787690  77.6284062
  33.8469749  33.2156488  78.0752977  34.0126744  33.9704999  78.2117693
  29.3909856  54.6299046  74.7971504  30.1559747  54.3608690  74.4754169
  29.2887945  54.1449057  75.5141567  29.4891351  54.5188611  74.8551332
  27.4262625  42.8323456  81.3364740  26.6358700  42.6514916  81.6582076
  27.8223248  42.0550408  81.3195035  27.3679501  42.6910917  81.3817289
  31.9128516  51.6611230  66.7771454  32.6801501  51.7211355  66.3677306
  31.4659825  51.0891672  66.2927772  31.9601943  51.5847806  66.6449164
  32.8106312  50.4665886  79.0624186  32.1351313  50.2351118  79.5637573
  32.8198688  49.8587069  78.4366291  32.7124816  50.3424811  79.0440338
  29.9400456  45.3083715  85.8188239  29.8759597  46.1693671  85.6908376
  30.0797643  44.9915708  85.0183790  29.9515926  45.3883882  85.6816452
  34.8123046  53.3231018  71.2934364  34.8942884  54.1298005  70.9695815
  35.2972788  53.3426978  72.0175138  34.8960204  53.4451681  71.3521263
  28.6219549  48.0015854  79.9604442  28.1981799  48.2020353  79.2243460
  28.4464405  47.1544702  80.0728742  28.5330430  47.9064636  79.8678132
  23.9101994  48.4967906  75.3932415  24.0666614  48.4314709  76.2488407
  24.2502588  49.2716458  75.1811094  23.9835229  48.6017104  75.4887009
  30.4481139  47.8725789  74.2625778  30.9896684  47.3696170  74.7264398
  30.7627698  47.8190984  73.4515263  30.5745536  47.7905210  74.2109590
  28.6167589  53.2643141  71.5465806  28.6860409  52.4057679  71.6858806
  29.3956044  53.4815022  71.2184830  28.7420439  53.1696005  71.5182963
  31.5970408  42.7662094  84.3148078  31.8112378  42.1273008  83.7611432
  30.9804308  43.2107918  83.8855940  31.5375738  42.7372238  84.1698509
  33.0075076  55.6880842  75.7602299  32.6154868  55.3847557  75.0425165
  33.1628149  56.5249932  75.5707253  32.9728666  55.7664679  75.6258796
  20.4836256  45.6802856  75.7093182  20.8635221  46.0987401  75.0453449
  19.9091621  46.2616312  76.0162025  20.4547581  45.8280715  75.6569923
  33.7609496  44.3751159  85.2531385  32.9486178  44.0677049  85.3344558
  34.2199431  43.8950159  85.8174097  33.7089881  44.2587651  85.3485979
  33.1714751  52.2530831  75.7008330  32.8129406  52.4245474  76.4772362
  32.6853462  52.7144037  75.1436328  33.0473448  52.3469802  75.7333599
  30.9885137  35.8762030  79.3035421  30.1178695  35.8500751  79.2568730
  31.2425478  35.7039222  78.4861267  30.8978697  35.8472173  79.1755558
  27.9603116  47.9329996  68.2408564  28.2495641  48.7094879  68.5152138
  28.0474915  47.4218728  68.9423063  28.0157373  47.9721915  68.3851062
  28.0134278  37.8868258  80.7608891  27.4972766  37.1948449  80.8860470
  27.4528206  38.5539035  80.7071490  27.8540791  37.8831516  80.7714957
  36.0576490  44.9923873  81.2141446  35.6304099  44.9050222  80.4589546
  35.4202543  45.1001648  81.7996290  35.9006098  44.9956533  81.1886888
  24.1267057  47.2463261  80.3408676  23.2855064  47.1467135  80.5487570
  24.3357065  48.0158741  80.6922997  24.0331750  47.3455304  80.4235991
  21.6042624  44.8682798  78.1693427  21.2099322  44.9425810  77.3943536
  21.0482741  45.2540744  78.7201789  21.4645437  44.9364573  78.1361087
  33.2407571  37.8464092  77.8497306  33.4457165  37.7786400  78.6954303
  32.9133995  38.6522913  77.7818483  33.2222819  37.9550032  77.9656961
  27.9383722  45.1744660  79.5906274  27.6346860  44.6200648  80.1916681
  27.2363143  45.3536870  79.1034308  27.7899932  45.1189443  79.6075979
  26.9949819  42.4845180  74.1550975  27.2709554  41.7664093  73.7428543
  27.5948489  43.0830100  73.9472082  27.1243084  42.4665551  74.0631737
  36.4941259  38.3995856  77.3300071  35.8815572  38.8866258  77.7153803
  36.5905434  37.7239347  77.8737722  36.4179157  38.3714165  77.4678929
  30.4960340  40.1558697  72.4297571  30.9504086  40.3269258  73.1545415
  30.9700386  39.5426808  72.0295346  30.6328660  40.0909583  72.4771332
  24.0175865  49.6407023  81.7600309  23.4263799  50.2816521  81.7303324
  24.7796889  50.0644641  81.7331609  24.0424126  49.7982862  81.7515456
  33.7765382  55.0916335  79.1932333  33.5785070  55.5807149  78.4988545
  33.1553093  55.2957576  79.7716467  33.6552946  55.1932873  79.1755557
  27.8373360  46.8601232  73.5342578  28.5815405  47.2475508  73.7725528
  27.9834056  46.0158657  73.6983066  27.9683945  46.7931705  73.5936547
  29.7552935  38.6551491  78.5674439  28.9088980  38.8274298  78.4415789
  29.7524068  37.8500834  78.9040267  29.6300085  38.5612520  78.5985566
  30.8251236  42.4326705  79.4336497  30.3511190  41.9068467  79.9441808
  31.1969372  41.8856178  78.8651359  30.8101125  42.2742702  79.4251644
  37.0887966  47.4929081  80.8443278  36.8486189  46.6535496  80.8485704
  37.5679973  47.5729247  81.5684051  37.1240150  47.3810480  80.9518080
  32.7534735  43.3263260  72.4962251  32.2257754  43.4092004  71.8067960
  33.2130444  44.0681131  72.4926896  32.7436586  43.4483922  72.3936946
  39.0893153  44.2730538  78.7972537  38.8502923  44.2326372  77.9593321
  39.2527055  45.1201690  78.9238258  39.0783457  44.3922623  78.6926019
  24.5626052  43.2540661  81.4630461  23.9379122  43.2659053  80.8556414
  24.2271647  43.7300836  82.1121701  24.4211544  43.3259178  81.4687030
  24.7467801  41.5965779  67.5203146  24.3980605  42.2485504  67.9834695
  24.2664246  41.5822892  66.7927017  24.6238044  41.6908833  67.4814237
  32.3071818  51.8966823  71.6271908  33.0306017  52.3624936  71.4836481
  31.8672409  51.9640433  70.8769505  32.3487510  51.9750660  71.4956689
  31.4757973  48.7564365  82.8772597  30.8614966  48.2122416  83.1721232
  31.9925258  48.2428602  82.3978413  31.4613635  48.6000774  82.8496825
  30.7154270  49.8268635  80.6116896  30.2881878  49.2018354  80.1782331
  30.7079215  49.5443557  81.4375903  30.6513411  49.6921416  80.6696723
  29.0439980  40.7037390  80.8259430  29.0682467  40.1697502  80.1372210
  29.2951453  40.1954699  81.4885020  29.0849899  40.5498294  80.8224074
  25.3241302  39.4308208  80.2065174  25.3639674  39.9317415  80.9199881
  24.4990967  39.5218602  79.9371097  25.2080828  39.5190025  80.2715712
  26.7455665  45.9468718  82.5039073  25.9147595  46.1142536  82.2974321
  26.6907183  45.5704669  83.2887958  26.6145080  45.9158449  82.5887601
  25.1491932  45.0891421  70.3621767  25.7837011  45.6851846  70.2971229
  25.2317542  44.7894878  71.1767638  25.2548483  45.1332329  70.4724854
  26.7270915  41.0205396  70.3367209  27.0486756  40.5408479  69.6826472
  26.9897858  41.8305042  70.1458021  26.8136940  41.0695294  70.2122701
  29.9567887  52.0424270  83.8566026  29.4492978  52.5960117  84.3006656
  29.6594533  52.1032560  83.0384800  29.8372772  52.1330582  83.8014482
  32.1230070  40.4077590  82.6990688  32.5485141  39.9550116  82.0874215
  31.5087063  39.8537661  82.9755476  32.0958715  40.2591566  82.6495714
  21.6544920  47.2859261  73.6311313  22.1637149  47.8823769  74.0122619
  22.1279192  47.0185235  72.9487733  21.7988295  47.3345077  73.5865836
  32.5675668  55.9587528  71.7869969  31.8504977  55.7848390  71.3217206
  33.2182405  55.7240100  71.2545455  32.5577518  55.8983321  71.6399187
  30.5624292  36.8792690  76.1081265  29.9192610  36.7290336  76.6766404
  30.2223699  36.6335035  75.3430370  30.4169370  36.8204812  76.0784281
  35.1523639  44.8352117  75.5311274  34.4814829  45.3781819  75.4024340
  35.8463389  45.3046972  75.2892969  35.1552506  44.9850388  75.4766802
  29.2010373  56.9748829  80.7623032  28.9776027  56.2167658  81.1307059
  28.7120216  57.0046850  80.0403472  29.0953822  56.8671053  80.7099773
  35.3151766  41.2908000  78.4401647  35.6679376  40.8637723  79.1147446
  34.4566568  41.2058844  78.5702724  35.2401211  41.2152741  78.5596658
  24.0135451  43.9215520  76.4984494  23.2947440  44.3379653  76.7657357
  24.3847814  44.4869759  75.9476132  23.9627383  44.0664801  76.4567301
  33.3135032  44.5543369  82.3886490  33.2932959  44.3726664  83.2421268
  33.3614233  45.4255387  82.3646073  33.3169673  44.6559907  82.5109784
  27.8488829  57.1949287  78.2160117  27.4349228  56.5323417  77.8263959
  28.5336204  57.3427146  77.6955811  27.8887201  57.1189945  78.0816614
  31.2154124  56.3539372  78.9683734  30.8170407  56.4641642  78.2004554
  30.6005343  56.5621438  79.5510293  31.0653013  56.4012940  78.9415033
  29.7882026  42.9613520  71.8357873  29.1946865  43.2830516  71.2842440
  29.8257303  42.1154615  71.6278979  29.7056415  42.8837848  71.7240645
  36.7475826  36.4126412  79.3685960  36.2406691  35.7055552  79.3007137
  37.5443260  36.0819601  79.4987036  36.7903066  36.2599563  79.3784955
  32.6639842  42.9193024  75.2659624  32.4353535  42.9425726  74.4237982
  32.9237918  42.0950491  75.3854634  32.6686030  42.8009104  75.1584821
  25.7184605  41.4569571  76.5613819  26.1941971  41.8186650  75.9264000
  25.2173204  42.1126038  76.8413962  25.7149964  41.6063759  76.5090560
  38.9495966  50.9291339  72.3526824  39.3329572  51.6782695  72.5824921
  38.1540080  51.1757158  72.0938813  38.8889749  51.0761033  72.3484398
  27.7611258  43.6010770  69.9287203  28.1410223  43.6190400  69.1438318
  27.0203854  44.0464759  69.8078050  27.7080096  43.6692545  69.7950771
  35.3896548  41.9092962  75.5162782  35.3890775  41.7541618  76.3747058
  35.1852728  42.7555949  75.4604167  35.3596326  42.0113582  75.6350721
  17.4513819  45.3332746  79.9321598  17.2735580  44.8809355  80.6576514
  17.1632841  46.1358907  80.1160076  17.3826773  45.3855304  80.0665101
  33.1137400  46.5890463  79.1698989  33.6091066  45.8713459  79.1303009
  32.3037176  46.2861261  79.0553476  33.0681294  46.4388110  79.1472715
  28.5596012  50.4388277  71.3195993  27.7507335  50.1154950  71.2729303
  29.0670921  49.7321499  71.2524242  28.5145679  50.2869593  71.3026288
  19.1886289  47.8660470  77.0443357  18.3231809  47.8546160  76.9326129
  19.2885105  47.6790693  77.8914497  19.0760456  47.8366531  77.1532302
  35.1789219  49.3394151  81.8576117  35.6044291  48.8168573  81.3046543
  34.8146139  49.9374988  81.3364740  35.1875822  49.3504378  81.6985127
  24.8143299  57.6358368  80.6173463  25.1289858  58.4494757  80.6251245
  25.2236712  57.2508587  81.2855622  24.9211397  57.6987071  80.7177555
  31.7667819  53.0528415  78.1877275  32.2378997  53.7668678  78.3567260
  32.1027997  52.4527165  78.7237144  31.8862934  53.0699880  78.2909651
  35.2135629  40.9131704  82.3356160  34.6298618  41.4140910  81.9233727
  35.5339924  40.4061260  81.7020483  35.1748805  40.9123539  82.1814667
  27.7530429  39.8272299  72.6114835  28.5746123  39.9970612  72.3696530
  27.2900079  39.9819560  71.8881132  27.8061591  39.8754032  72.4686479
  22.1556319  51.5831477  80.2652071  22.7601177  51.5427311  79.6365892
  21.9483632  52.4302629  80.2956127  22.2145217  51.7019479  80.1768188
  31.9700091  53.8497422  81.4814309  32.7898465  53.7060388  81.7430604
  31.6894169  54.4743621  82.0230747  32.0496835  53.9207774  81.6002248
  40.1962350  60.0724594  74.0879224  40.8942515  60.2512721  74.5800687
  40.5114682  59.5494933  73.4649613  40.3457687  60.0218366  74.0681234
  38.3689213  55.4416990  78.1700499  38.0392543  55.8928134  77.5004197
  37.6934215  55.3633154  78.7173505  38.2199650  55.4968126  78.1523722
  45.5765621  51.4302513  76.4150109  45.2619062  52.1205992  76.8470532
  45.0592563  51.3747296  75.7135610  45.4530092  51.5237402  76.3747058
  36.8077663  65.3270231  71.3294988  36.2234878  65.8320262  71.7360852
  36.4047758  65.1012618  70.5891580  36.6616967  65.3678479  71.2800013
  41.2654877  61.5735883  69.8063909  41.5050881  61.7813867  68.9939252
  41.5870718  60.7693392  69.9152853  41.3492035  61.4849984  69.7024462
  36.5745168  53.5029279  73.6523446  37.3291136  53.8707596  73.4140497
  36.3972702  53.8768833  74.4202626  36.6599646  53.6127467  73.7308335
  34.9302232  55.9099598  70.3501559  34.7477805  56.1271479  69.5242552
  35.7927845  56.0238611  70.4060174  35.0306822  55.9589496  70.2356046
  40.6101951  52.9126009  73.3850583  41.3388112  52.7341963  72.9388740
  40.6996844  53.7544088  73.5957761  40.7308613  53.0109887  73.3504101
  34.4764259  59.1873770  68.8624033  33.7622436  58.9011950  69.2746465
  34.9608228  59.5270396  69.5030420  34.4423623  59.1955420  69.0179667
  41.6511577  67.6903724  69.2385841  42.0662726  67.3588748  68.5470336
  40.8203507  67.4572627  69.1105977  41.5899586  67.6074980  69.1176688
  44.3444967  63.9414284  68.4247042  44.2625130  64.0116471  69.2902029
  44.9824688  64.5044028  68.2330783  44.4264805  64.0353255  68.5236992
  26.4229669  60.9052859  76.3930904  26.5089921  60.5284727  77.1744434
  27.0505467  60.5313305  75.9150862  26.5286220  60.7938341  76.4376381
  41.4485077  63.9634738  71.4355649  42.2625716  64.2549631  71.3238420
  41.3844219  63.3094600  70.8613942  41.5587816  63.9099933  71.3344486
  37.9595801  62.6558545  70.9002850  38.3440953  62.4366252  71.6519395
  37.7107421  63.4821491  71.0303926  37.9797873  62.7456692  71.0303927
  35.6796238  54.3255482  76.2311631  34.8118664  54.3978082  76.2969240
  35.9671442  55.1277561  76.4199606  35.5935986  54.4549629  76.2686397
  33.6063590  57.8013741  73.6728507  33.3188386  57.4315012  72.9360454
  34.2934058  58.2708597  73.4112212  33.6652487  57.8160711  73.5243583
  36.4417262  61.6666690  75.1195912  37.1639914  61.8307848  74.6599718
  35.9625255  62.3876354  75.0135251  36.4780992  61.7964919  75.0361526
  42.8480048  54.9015865  75.2320212  43.5506400  54.7023614  74.7540171
  42.5824236  54.1291808  75.5389056  42.9126680  54.7578831  75.2065654
  31.1791785  58.5794954  74.5213788  31.2807921  59.3821115  74.8494763
  31.9747672  58.3782290  74.2236868  31.3119690  58.6680853  74.5249143
  44.9940157  49.5396535  78.3616759  45.1123725  49.9972998  77.6284062
  44.8202333  48.7341796  78.0752977  44.9859328  49.4890307  78.2117693
  42.8861100  67.1796538  66.7771454  43.6534085  67.2396663  66.3677306
  42.4392409  66.6076980  66.2927772  42.9334527  67.1033114  66.6449164
  31.4568839  61.1988164  75.7093182  31.8367804  61.6172709  75.0453449
  30.8824204  61.7801620  76.0162025  31.4280164  61.3466023  75.6569923
  41.9617721  51.3947337  79.3035421  41.0911279  51.3686059  79.2568730
  42.2158062  51.2224530  78.4861267  41.8711281  51.3657481  79.1755558
  38.9335700  63.4515304  68.2408564  39.2228225  64.2280187  68.5152138
  39.0207499  62.9404036  68.9423063  38.9889956  63.4907223  68.3851062
  37.9682403  58.0030488  74.1550975  38.2442137  57.2849400  73.7428543
  38.5681072  58.6015408  73.9472082  38.0975668  57.9850859  74.0631737
  41.4692923  55.6744005  72.4297571  41.9236670  55.8454566  73.1545415
  41.9432969  55.0612116  72.0295346  41.6061244  55.6094891  72.4771332
  38.8105943  62.3786540  73.5342578  39.5547988  62.7660816  73.7725528
  38.9566640  61.5343965  73.6983066  38.9416529  62.3117012  73.5936547
  40.7285519  54.1736799  78.5674439  39.8821564  54.3459606  78.4415789
  40.7256651  53.3686142  78.9040267  40.6032669  54.0797828  78.5985566
  43.7267319  58.8448568  72.4962251  43.1990338  58.9277312  71.8067960
  44.1863027  59.5866439  72.4926896  43.7169169  58.9669230  72.3936946
  35.7200384  57.1151087  67.5203146  35.3713188  57.7670812  67.9834695
  35.2396830  57.1008200  66.7927017  35.5970628  57.2094141  67.4814237
  36.0924293  59.7409618  73.0329191  36.2327254  60.2382082  73.7357832
  36.5906826  59.0395912  73.1743404  36.1865374  59.7111596  73.1580770
  36.1224515  60.6076729  70.3621767  36.7569595  61.2037154  70.2971229
  36.2050126  60.3080186  71.1767638  36.2281066  60.6517637  70.4724854
  37.7003498  56.5390704  70.3367209  38.0219339  56.0593787  69.6826472
  37.9630442  57.3490350  70.1458021  37.7869524  56.5880602  70.2122701
  32.6277503  62.8044569  73.6311313  33.1369732  63.4009077  74.0122619
  33.1011775  62.5370543  72.9487733  32.7720879  62.8530385  73.5865836
  41.5356876  52.3977998  76.1081265  40.8925194  52.2475644  76.6766404
  41.1956283  52.1520343  75.3430370  41.3901953  52.3390120  76.0784281
  34.9868035  59.4400828  76.4984494  34.2680024  59.8564960  76.7657357
  35.3580397  60.0055067  75.9476132  34.9359967  59.5850109  76.4567301
  40.7614609  58.4798828  71.8357873  40.1679449  58.8015824  71.2842440
  40.7989887  57.6339923  71.6278979  40.6788998  58.4023156  71.7240645
  43.6372426  58.4378332  75.2659624  43.4086119  58.4611034  74.4237982
  43.8970502  57.6135799  75.3854634  43.6418614  58.3194412  75.1584821
  36.6917188  56.9754879  76.5613819  37.1674555  57.3371958  75.9264000
  36.1905788  57.6311346  76.8413962  36.6882547  57.1249067  76.5090560
  38.7343841  59.1196078  69.9287203  39.1142806  59.1375708  69.1438318
  37.9936438  59.5650067  69.8078050  38.6812679  59.1877853  69.7950771
  39.5328596  65.9573585  71.3195993  38.7239918  65.6340258  71.2729303
  40.0403504  65.2506807  71.2524242  39.4878262  65.8054901  71.3026288
  30.1618873  63.3845778  77.0443357  29.2964392  63.3731468  76.9326129
  30.2617689  63.1976001  77.8914497  30.0493040  63.3551839  77.1532302
  38.7263012  55.3457607  72.6114835  39.5478707  55.5155919  72.3696530
  38.2632663  55.5004868  71.8881132  38.7794174  55.3939340  72.4686479
  26.1899399   7.4069789  61.3797232  26.1593403   8.2614426  61.5515501
  26.7880747   7.1065082  61.9383376  26.2736556   7.4886286  61.4872034
  13.7740223  16.0308158  61.8987394  13.0223123  15.6523696  61.6703439
  14.2226235  16.0626592  61.1506204  13.7289890  15.9793765  61.7544896
  19.2265183  16.4533527  57.3272941  18.8916551  17.1310449  56.8917163
  19.7392053  16.0638839  56.7389813  19.2530764  16.4958106  57.1759733
  18.7669474  18.4047796  63.2684053  19.1508854  18.9734695  62.7288828
  18.7028616  17.6797306  62.7889869  18.8142902  18.3823260  63.1177915
  24.0115973   9.9822091  59.6515542  23.8955499  10.7329777  60.0807680
  24.8071860   9.7246044  59.9011629  24.1120563  10.0556938  59.7519633
  15.1925719  20.9604139  65.5665022  15.8363174  21.4017303  65.9561181
  15.5181974  20.1557565  65.4795281  15.3357548  20.9069334  65.6110500
  15.8946299  13.9716114  60.9384884  16.2162140  14.5121321  60.3346192
  16.5418395  13.4012886  61.0707174  16.0372354  13.9675289  60.8691920
  18.1335942  12.3602554  61.0099062  18.5729578  11.7519655  61.4553835
  17.9840605  11.9809927  60.2384527  18.1757408  12.2141025  60.9618230
  21.7345279  10.7129735  57.9629832  21.6496574  11.5690702  58.1079400
  22.2229662  10.4374059  58.6311991  21.7934176  10.7987057  58.0831913
  22.6663712   7.3314530  59.4627567  22.1375183   7.5474163  60.1224873
  23.1888732   8.0250668  59.3828536  22.6652165   7.4657666  59.5483166
  28.1211765  12.9060834  64.8360611  27.2909468  13.1171478  64.9994028
  28.0721017  12.0797889  64.5602895  27.9918500  12.8150440  64.8197977
  14.5563320  11.2277746  58.2635035  13.9720535  11.7327778  58.6700899
  14.1533415  11.0020133  57.5231627  14.4102623  11.2685995  58.2140060
  19.0140534   7.4743398  56.7403955  19.2536538   7.6821382  55.9279298
  19.3356375   6.6700907  56.8492900  19.0977692   7.3857500  56.6364508
  25.3776080  13.5760188  64.9725327  24.9411312  13.5796931  65.7284298
  25.0438995  14.2565687  64.5404904  25.2638700  13.6772644  65.0206160
  28.5120426  10.2941108  63.8644964  29.1736860   9.7331777  63.7640873
  27.8711838   9.7993139  64.1897655  28.5149294  10.1377517  63.8977304
  19.3997234  13.5911240  56.1725888  19.8148382  13.2596264  55.4810383
  18.5689164  13.3580142  56.0446024  19.3385243  13.5082496  56.0516735
  24.7985257  11.3106491  63.6056953  25.0340846  11.4551690  62.7783804
  24.9474821  12.0748899  63.9988467  24.8551060  11.4445545  63.5420557
  26.6275714  10.1508157  61.4426557  26.9583931  10.6835797  60.8366652
  27.2008802  10.2047044  62.0988508  26.7609393  10.2377726  61.4504339
  22.0930624   9.8421799  55.3587089  22.0110787   9.9123986  56.2242076
  22.7310345  10.4051543  55.1670830  22.1750461   9.9360770  55.4577038
  19.1970734   9.8642253  58.3695695  20.0111373  10.1557146  58.2578467
  19.1329876   9.2102116  57.7953988  19.3073473   9.8107448  58.2684533
  15.7081458   8.5566061  57.8342897  16.0926610   8.3373767  58.5859442
  15.4593078   9.3829006  57.9643973  15.7283530   8.6464207  57.9643973
  15.9904700  16.7770937  59.9075267  16.2802999  16.3859918  59.1834494
  16.7208181  16.9587642  60.3480542  16.1411584  16.7464750  59.8658074
  13.9310616  18.7538319  62.9735417  13.7110911  18.4635674  63.7662084
  13.7105138  18.0953274  62.4453329  13.8658210  18.6138027  63.0124326
  16.0978571  20.1267709  61.7566109  16.7502630  19.5944151  61.9857135
  15.4004180  19.7736361  62.1433983  16.0909289  19.9957232  61.8478277
  24.0918490  12.4472123  61.0997089  24.6576522  13.1065333  61.0155631
  23.4446393  12.7921821  61.5713491  24.0797246  12.5954064  61.1569845
  20.5625068  15.3910907  60.5234168  20.3211744  14.6578768  60.1161233
  20.7426401  15.9397764  59.8700501  20.5532692  15.3633298  60.3664391
  25.2881188  12.4978351  57.8922725  24.9087996  11.7115489  57.8852014
  24.6247433  13.0465208  57.7494369  25.1339662  12.4623175  57.8703522
  18.1128096  16.0491870  61.7311551  18.8777987  15.7801513  61.4094216
  18.0106186  15.5641880  62.4481614  18.2109591  15.9381434  61.7891379
  20.6346756  13.0804053  53.7111501  21.4019742  13.1404178  53.3017352
  20.1878065  12.5084495  53.2267819  20.6820184  13.0040629  53.5789211
  23.5341286  14.7423842  58.2274411  23.6161124  15.5490828  57.9035862
  24.0191029  14.7619801  58.9515184  23.6178444  14.8644504  58.2861310
  19.1699379   9.2918613  61.1965825  19.7114925   8.7888994  61.6604445
  19.4845938   9.2383807  60.3855310  19.2963776   9.2098034  61.1449637
  17.3385829  14.6835964  58.4805853  17.4078649  13.8250503  58.6198853
  18.1174284  14.9007845  58.1524877  17.4638679  14.5888828  58.4523010
  21.7293317  17.1073665  62.6942346  21.3373108  16.8040381  61.9765212
  21.8846389  17.9442755  62.5047300  21.6946906  17.1857502  62.5598843
  21.8932991  13.6723654  62.6348376  21.5347646  13.8438297  63.4112409
  21.4071702  14.1336860  62.0776375  21.7691688  13.7662625  62.6673646
  16.6821357   9.3522820  55.1748611  16.9713882  10.1287702  55.4492185
  16.7693156   8.8411551  55.8763110  16.7375613   9.3914738  55.3191109
  22.4983622  16.5109158  66.1272380  22.3003311  16.9999973  65.4328592
  21.8771333  16.7150400  66.7056514  22.3771186  16.6125696  66.1095604
  21.4752976   4.7456083  59.4302298  20.9475994   4.8284827  58.7408007
  21.9348684   5.4873954  59.4266942  21.4654826   4.8676745  59.3276993
  21.0290058  13.3159646  58.5611955  21.7524257  13.7817759  58.4176528
  20.5890649  13.3833256  57.8109552  21.0705750  13.3943483  58.4296736
  21.2893908  17.3780351  58.7210016  20.5723218  17.2041214  58.2557253
  21.9400646  17.1432924  58.1885502  21.2795758  17.3176144  58.5739234
  16.5707070  18.6142110  65.1500164  16.1567468  17.9516240  64.7604005
  17.2554444  18.7619969  64.6295858  16.6105442  18.5382768  65.0156661
  19.9372364  17.7732195  65.9023780  19.5388647  17.8834466  65.1344601
  19.3223584  17.9814262  66.4850340  19.7871253  17.8205763  65.8755080
  27.6714207  12.3484162  59.2866871  28.0547812  13.0975518  59.5164968
  26.8758320  12.5949982  59.0278860  27.6107989  12.4953856  59.2824445
  16.4829498   5.0203594  56.8627250  16.8628463   5.0383223  56.0778365
  15.7422094   5.4657583  56.7418097  16.4298336   5.0885368  56.7290818
  17.2814252  11.8581100  58.2536040  16.4725575  11.5347774  58.2069349
  17.7889161  11.1514322  58.1864289  17.2363919  11.7062416  58.2366334
  37.1631982  22.9255097  61.3797232  37.1325986  23.7799734  61.5515501
  37.7613331  22.6250390  61.9383376  37.2469140  23.0071594  61.4872034
  30.3631667  22.0130748  66.1350162  29.5069562  22.1739246  66.1859279
  30.4099321  21.1422812  66.1555223  30.2430778  21.9081550  66.1456228
  24.7472807  31.5493466  61.8987394  23.9955706  31.1709004  61.6703439
  25.1958818  31.5811900  61.1506204  24.7022474  31.4979073  61.7544896
  33.6725384  28.2817274  75.7410618  34.3792151  27.7869304  75.8697553
  33.8613319  28.7226355  75.0113277  33.8053289  28.2735624  75.6519664
  30.1997767  31.9718835  57.3272941  29.8649135  32.6495757  56.8917163
  30.7124637  31.5824147  56.7389813  30.2263348  32.0143414  57.1759733
  29.7402058  33.9233104  63.2684053  30.1241437  34.4920003  62.7288828
  29.6761199  33.1982614  62.7889869  29.7875485  33.9008568  63.1177915
  33.2083488  24.0722792  68.7781814  33.7539448  24.7507879  68.8375784
  33.1500364  23.9310253  67.9183396  33.2799402  24.1514794  68.6593875
  26.3257563  31.5611858  64.1650166  26.4267926  30.7512212  64.4747294
  25.7299308  31.4668804  63.5349845  26.2530102  31.4276886  64.1176405
  34.9848557  25.5007399  59.6515542  34.8688083  26.2515085  60.0807680
  35.7804443  25.2431352  59.9011629  35.0853146  25.5742246  59.7519633
  26.1658302  36.4789447  65.5665022  26.8095758  36.9202611  65.9561181
  26.4914558  35.6742873  65.4795281  26.3090131  36.4254642  65.6110500
  19.5222607  27.5832145  63.7902500  19.2872792  26.7499797  63.6834769
  19.6608248  27.8636810  62.9763701  19.5078270  27.5015648  63.6544855
  21.8212695  19.7517875  66.6886808  21.2017726  19.1610522  66.5196823
  21.7196558  20.3429310  66.0551131  21.7150370  19.7521958  66.5691797
  26.8678882  29.4901422  60.9384884  27.1894723  30.0306629  60.3346192
  27.5150979  28.9198193  61.0707174  27.0104937  29.4860597  60.8691920
  28.9180590  21.4917417  61.0219271  29.6160755  21.6705545  61.5140734
  29.2332923  20.9687756  60.3989660  29.0675927  21.4411189  61.0021281
  21.5481828  23.2970157  68.9330377  21.4240524  23.8832602  69.5680196
  22.2000112  22.8030353  69.2342652  21.6255477  23.3108961  69.0716306
  29.1068526  27.8787862  61.0099062  29.5462161  27.2704963  61.4553835
  28.9573188  27.4995235  60.2384527  29.1489991  27.7326333  60.9618230
  26.5740169  26.4731874  68.2117888  27.2189171  25.9804317  67.8928836
  26.8141946  26.6156660  69.0383966  26.7050754  26.4209316  68.2867421
  29.1126260  29.3186780  67.8624780  29.3949503  28.5238185  67.6411536
  29.8412420  29.7967367  67.8829841  29.2615824  29.2721377  67.8327796
  27.0907454  16.8609814  65.1040546  26.7610784  17.3120957  64.4344244
  26.4152456  16.7825977  65.6513552  26.9417890  16.9160949  65.0863769
  32.7077862  26.2315043  57.9629832  32.6229157  27.0876010  58.1079400
  33.1962245  25.9559367  58.6311991  32.7666759  26.3172365  58.0831913
  34.2983862  12.8495337  63.3490156  33.9837303  13.5398815  63.7810579
  33.7810803  12.7940119  62.6475657  34.1748332  12.9430225  63.3087105
  33.6396295  22.8499838  59.4627567  33.1107767  23.0659471  60.1224873
  34.1621315  23.5435976  59.3828536  33.6384748  22.9842974  59.5483166
  39.0944348  28.4246142  64.8360611  38.2642051  28.6356786  64.9994028
  39.0453601  27.5983197  64.5602895  38.9651084  28.3335748  64.8197977
  25.5295903  26.7463054  58.2635035  24.9453118  27.2513086  58.6700899
  25.1265998  26.5205441  57.5231627  25.3835207  26.7871303  58.2140060
  21.0839932  32.4617815  65.0658706  20.6007510  33.1868305  65.0418290
  21.8963250  32.7593945  65.1768864  21.1330680  32.6120169  65.0785985
  27.1554086  31.2549996  67.6708521  26.6381028  30.8957411  67.0669829
  27.8528477  30.7312171  67.6814587  27.1819667  31.1247684  67.5838779
  30.8117678  31.7044810  73.6324694  30.9001024  31.5170951  74.4802904
  31.2407390  31.0582240  73.2329541  30.8879780  31.5807818  73.6996445
  28.3788138  30.9875970  72.6142356  27.8158972  30.5748580  73.1382017
  29.1409161  30.9128876  73.0335499  28.4082586  30.9153371  72.7535356
  25.2963408  14.9222102  60.5863493  26.0509376  15.2900419  60.3480543
  25.1190942  15.2961656  61.3542673  25.3817886  15.0320290  60.6648382
  23.9384129  32.9773991  65.2178986  24.6404708  32.4625980  65.2751743
  23.8581612  33.3048143  66.0225861  24.0307890  32.9488218  65.3451778
  38.5898307  21.0716543  68.6311033  37.7526728  21.1418730  68.8658627
  38.5586538  21.0741037  67.7585335  38.4616589  21.0826770  68.5370581
  23.6520473  17.3292421  57.2841606  23.4696046  17.5464302  56.4582599
  24.5146086  17.4431434  57.3400221  23.7525062  17.3782319  57.1696093
  23.2634905  29.1680343  64.7264594  24.1023804  29.4003276  64.7738356
  23.2946674  28.2984655  64.6571630  23.3916622  29.0737290  64.7229239
  23.8887608  29.5881219  69.0277900  24.4285832  29.4452350  69.6981272
  23.2057554  29.9877969  69.3961926  23.8679761  29.6260889  69.1812321
  29.3320192  14.3318832  60.3190630  30.0606352  14.1534787  59.8728786
  29.4215085  15.1736912  60.5297808  29.4526854  14.4302710  60.2844148
  33.3128492  25.2672219  64.2222924  34.0686007  25.7003733  64.2611833
  33.4190817  24.6176989  64.7957560  33.4398663  25.2349703  64.3120950
  36.3508664  29.0945496  64.9725327  35.9143895  29.0982239  65.7284298
  36.0171579  29.7750995  64.5404904  36.2371283  29.1957952  65.0206160
  30.9237737  31.1353829  76.2968477  31.7078154  31.2484677  76.6624219
  30.7234332  30.3094966  76.4927163  31.0103763  31.0300549  76.3802863
  19.2924753  25.8081509  69.1812321  19.0263168  24.9920626  69.3403311
  19.3063317  25.8534665  68.3107837  19.2549475  25.6938414  69.0765803
  36.2706146  16.1359324  67.2154755  36.9132055  16.2057429  67.8016670
  36.5229167  15.4688547  66.7134297  36.4028279  16.0485673  67.2282034
  23.1982500  20.6066594  55.7964079  22.4840677  20.3204773  56.2086512
  23.6826468  20.9463220  56.4370467  23.1641863  20.6148243  55.9519714
  31.0808130  33.0463931  69.9434933  30.2823376  32.8063431  70.2008802
  31.5294142  33.0978324  70.6901981  31.0282742  33.0186322  70.0919857
  39.4853010  25.8126416  63.8644964  40.1469444  25.2517085  63.7640873
  38.8444422  25.3178447  64.1897655  39.4881877  25.6562825  63.8977304
  30.3729817  29.1096548  56.1725888  30.7880966  28.7781572  55.4810383
  29.5421747  28.8765450  56.0446024  30.3117826  29.0267804  56.0516735
  19.7018166  26.5940289  66.4624065  19.5193739  26.5687175  65.6096358
  20.4367835  27.0639227  66.5012974  19.7832230  26.6601651  66.3421984
  35.7717840  26.8291799  63.6056953  36.0073430  26.9736998  62.7783804
  35.9207404  27.5934207  63.9988467  35.8283644  26.9630853  63.5420557
  37.6008297  25.6693465  61.4426557  37.9316514  26.2021105  60.8366652
  38.1741385  25.7232352  62.0988508  37.7341976  25.7563033  61.4504339
  32.8140186  23.5158367  62.1250137  32.9087041  24.2547661  62.5789762
  32.1899030  23.0875843  62.5584701  32.7349216  23.5619688  62.2558284
  31.0692660  26.6944580  72.7740418  31.6431522  26.0571824  72.9288982
  30.9907464  26.6948662  71.9050075  31.1425895  26.6009691  72.6686829
  19.6689077  23.4733789  66.6123132  20.2462579  23.3370240  67.2515377
  18.9703138  23.0169574  66.8668716  19.6510098  23.3856056  66.7445422
  33.0663208  25.3607107  55.3587089  32.9843370  25.4309294  56.2242076
  33.7042928  25.9236851  55.1670830  33.1483045  25.4546078  55.4577038
  26.4256379  25.1267845  64.8261615  26.1675623  24.2939580  64.7992915
  26.4804862  25.3525458  63.9854116  26.3956157  25.0365616  64.6981752
  31.5057429  17.2296296  64.9265708  30.8013756  16.7405481  65.0849627
  31.5542403  17.2418770  64.0554152  31.4087480  17.1585944  64.8205048
  25.3991091  22.6805608  65.3126510  24.8240682  22.8397776  65.9490471
  25.0226767  22.0441017  64.8494961  25.2593903  22.6103420  65.3381068
  29.0664380  21.1528957  70.1718888  28.6778812  20.7283175  69.5171080
  28.4019078  21.4011106  70.6795915  28.9111307  21.1267678  70.1506756
  38.7087649  20.9103961  62.9466718  38.4524214  20.0983903  62.7564601
  39.5516963  20.9181529  62.7196906  38.7953674  20.7915959  62.8851536
  15.1447910  22.3245682  63.3270951  15.2308162  21.9477551  64.1084481
  15.7723707  21.9506128  62.8490909  15.2504461  22.2131164  63.3716428
  32.8890741  14.8503586  67.6842873  33.2701253  14.1681757  68.0710747
  32.0854025  14.5613188  67.5018537  32.8267203  14.7070634  67.7146929
  30.1703318  25.3827561  58.3695695  30.9843957  25.6742454  58.2578467
  30.1062459  24.7287424  57.7953988  30.2806057  25.3292756  58.2684533
  36.3912808  28.0653558  72.7825271  36.1551445  27.2341622  72.6637332
  37.0356037  28.0139165  73.3680115  36.4507479  27.9351245  72.8511165
  26.0411226  28.8549079  63.4968008  26.6785173  28.6160826  64.0419801
  26.4666298  29.0586238  62.7621168  26.1987392  28.8500089  63.4685165
  20.7323868  31.0937415  67.3802311  20.7728014  31.3652266  66.5522091
  21.2918393  31.6179323  67.7960099  20.8207214  31.2113170  67.3194199
  37.4149229  27.8498006  68.8453566  37.1095046  28.5826063  69.2066881
  36.6955444  27.4435936  68.5646352  37.2636571  27.8979739  68.8566703
  28.4232698  29.3321501  65.1761794  28.4971706  29.1696673  66.0303644
  29.2402204  29.5211691  64.9322275  28.5549057  29.3358244  65.2659819
  43.1151021  24.4891007  68.1721910  43.0475521  24.5086966  67.3024496
  43.1006683  25.3321334  68.3977580  43.1029777  24.6164742  68.0774387
  22.1838455  29.6779364  62.2056237  21.3576572  29.9241101  62.0790516
  22.2450446  29.5991445  63.0718295  22.0712622  29.7024313  62.3145182
  24.4014478  15.7448305  63.1651677  23.5336904  15.8170905  63.2309287
  24.6889683  16.5470384  63.3539653  24.3154227  15.8742452  63.2026444
  26.9637284  32.2956245  59.9075267  27.2535582  31.9045226  59.1834494
  27.6940765  32.4772949  60.3480542  27.1144168  32.2650058  59.8658074
  40.9009638  23.2635393  66.4468504  41.4517560  22.6303462  66.6865596
  40.8853753  23.7950786  67.1384008  40.9794834  23.2484341  66.5847362
  27.5532029  27.0973990  70.9928398  27.0543723  27.8089758  71.0713286
  28.3632253  27.4174657  70.9546560  27.5988136  27.2500839  70.9984966
  24.9043199  34.2723627  62.9735417  24.6843495  33.9820982  63.7662084
  24.6837721  33.6138582  62.4453329  24.8390794  34.1323335  63.0124326
  23.8160147  26.3596943  65.2391119  23.5273395  25.7334415  65.7736846
  24.6843495  26.3017231  65.3055799  23.9020398  26.2584488  65.3282073
  34.6038044  21.5031727  65.5573100  34.2602810  20.7822062  65.9080350
  34.7031087  21.2945578  64.7151459  34.5680087  21.3655930  65.4844780
  27.0711155  35.6453017  61.7566109  27.7235213  35.1129459  61.9857135
  26.3736764  35.2921669  62.1433983  27.0641873  35.5142540  61.8478277
  24.0192420  27.9992195  61.1633484  24.7738388  28.3805234  61.3768946
  23.4263033  28.4503338  61.6180180  24.0429133  28.1221022  61.2616362
  35.0651073  27.9657431  61.0997089  35.6309106  28.6250641  61.0155631
  34.4178977  28.3107129  61.5713491  35.0529830  28.1139372  61.1569845
  25.3390647  29.1700756  66.5373599  24.8171400  29.3101048  67.2225464
  25.7264667  28.4111420  66.7275716  25.3194347  29.0786280  66.6674675
  22.3281831  19.2206565  60.6068554  22.0406626  18.8507835  59.8700501
  23.0152299  19.6901420  60.3452259  22.3870728  19.2353534  60.4583629
  31.5357651  30.9096215  60.5234168  31.2944327  30.1764076  60.1161233
  31.7158984  31.4583072  59.8700501  31.5265275  30.8818606  60.3664391
  26.7656972  26.2004775  61.9355090  26.5699755  26.8079509  61.3415393
  26.9891318  25.5072719  61.4546764  26.7691613  26.1882300  61.7771171
  25.1635502  23.0859513  62.0535958  25.8858154  23.2500671  61.5939764
  24.6843495  23.8069178  61.9475298  25.1999233  23.2157742  61.9701572
  33.1229010  19.4223312  67.4332643  32.2840110  19.4484590  67.1970907
  33.1933377  20.0694047  68.0137990  33.0097403  19.5219437  67.4841760
  22.8143119  25.4917585  71.1590098  23.3264216  25.7701838  70.5098858
  22.5279461  26.2306879  71.5252911  22.8477982  25.6419939  71.1179976
  31.5698288  16.3208689  62.1660259  32.2724641  16.1216437  61.6880217
  31.3042477  15.5484631  62.4729103  31.6344920  16.1771655  62.1405701
  36.9986534  24.6291298  64.7193885  36.9120508  24.7846724  65.5728664
  36.5437013  25.2729374  64.3453290  36.9189790  24.7467053  64.7900992
  19.9010025  19.9987777  61.4553835  20.0026162  20.8013938  61.7834810
  20.6965912  19.7975113  61.1576915  20.0337931  20.0873676  61.4589190
  30.8712350  21.9502045  63.3419445  30.6247064  21.8697796  64.1756234
  31.1997473  21.1655513  63.1481972  30.8833593  21.8228311  63.4366968
  34.7660398  28.6585405  67.1306226  34.6274758  29.3566451  67.6354968
  33.9860396  28.5034061  66.7742408  34.6303625  28.7385571  67.1532500
  33.1038484  24.9581780  73.3828608  33.0986522  24.0861597  73.3871034
  33.8099477  25.1569949  72.9098063  33.2083488  24.8585654  73.3135643
  26.8309377  24.6858764  72.7542428  26.9752753  25.2659972  72.1185538
  27.1785025  25.0635061  73.4592282  26.9036838  24.8279468  72.7641423
  29.0029294  23.8848932  70.5367559  28.2552608  24.0779947  70.1315837
  29.1570819  23.0594152  70.2991681  28.9151722  23.7914044  70.4412965
  25.9037132  32.8761536  69.6203454  26.0526696  32.3164452  68.9676859
  26.6837134  32.9553538  70.0035973  26.0411226  32.8047101  69.5800404
  36.2613771  28.0163659  57.8922725  35.8820580  27.2300797  57.8852014
  35.5980017  28.5650516  57.7494369  36.1072246  27.9808483  57.8703522
  28.4290433  33.0476179  70.8987945  28.3534104  32.3784989  71.4538734
  28.3580292  33.7493967  71.4128612  28.4071039  33.0521086  71.0564793
  33.7158397  10.9589358  65.2956806  33.8341965  11.4165822  64.5624109
  33.5420573  10.1534620  65.0093024  33.7077568  10.9083130  65.1457740
  29.0860679  31.5677178  61.7311551  29.8510571  31.2986821  61.4094216
  28.9838769  31.0827188  62.4481614  29.1842175  31.4566742  61.7891379
  27.1213449  19.7701587  68.2704787  26.3309524  19.5893047  68.5922123
  27.5174072  18.9928540  68.2535081  27.0630325  19.6289048  68.3157335
  31.6079340  28.5989361  53.7111501  32.3752325  28.6589486  53.3017352
  31.1610649  28.0269803  53.2267819  31.6552767  28.5225937  53.5789211
  32.5057135  27.4044017  65.9964233  31.8302137  27.1729249  66.4977620
  32.5149512  26.7965200  65.3706338  32.4075640  27.2802942  65.9780385
  29.6351279  22.2461846  72.7528286  29.5710421  23.1071803  72.6248423
  29.7748467  21.9293839  71.9523837  29.6466750  22.3262013  72.6156499
  34.5073870  30.2609150  58.2274411  34.5893707  31.0676136  57.9035862
  34.9923612  30.2805109  58.9515184  34.5911028  30.3829812  58.2861310
  28.3170373  24.9393986  66.8944489  27.8932622  25.1398485  66.1583507
  28.1415229  24.0922834  67.0068789  28.2281254  24.8442767  66.8018179
  27.8182067  36.4544499  69.3565946  28.3077997  35.7555288  69.1741611
  27.2466299  36.1568369  69.9442003  27.8066597  36.3070722  69.4166987
  23.6052818  25.4346037  62.3272461  23.7617437  25.3692840  63.1828453
  23.9453411  26.2094590  62.1151141  23.6786053  25.5395235  62.4227055
  30.1431963  24.8103921  61.1965825  30.6847508  24.3074302  61.6604445
  30.4578522  24.7569115  60.3855310  30.2696360  24.7283341  61.1449637
  34.0149070  29.0206568  78.3092737  34.8283936  28.7491717  78.4697869
  33.8544037  28.7214108  77.5052933  34.1119019  28.9361494  78.2138143
  28.3118413  30.2021272  58.4805853  28.3811233  29.3435811  58.6198853
  29.0906868  30.4193153  58.1524877  28.4371263  30.1074136  58.4523010
  31.2921232  19.7040225  71.2488125  31.5063202  19.0651139  70.6951479
  30.6755132  20.1486049  70.8195987  31.2326562  19.6750369  71.1038556
  32.7025900  32.6258973  62.6942346  32.3105692  32.3225689  61.9765212
  32.8578972  33.4628063  62.5047300  32.6679490  32.7042810  62.5598843
  20.1787080  22.6180987  62.6433229  20.5586045  23.0365532  61.9793496
  19.6042445  23.1994443  62.9502072  20.1498405  22.7658846  62.5909969
  33.4560320  21.3129290  72.1871432  32.6437002  21.0055181  72.2684605
  33.9150255  20.8328290  72.7514144  33.4040705  21.1965783  72.2826026
  32.8665575  29.1908962  62.6348376  32.5080230  29.3623605  63.4112409
  32.3804286  29.6522168  62.0776375  32.7424272  29.2847933  62.6673646
  30.6835961  12.8140161  66.2375468  29.8129519  12.7878882  66.1908777
  30.9376302  12.6417353  65.4201314  30.5929521  12.7850304  66.1095605
  27.6553940  24.8708128  55.1748611  27.9446465  25.6473010  55.4492185
  27.7425739  24.3596859  55.8763110  27.7108197  24.9100046  55.3191109
  34.0270314  30.0812858  73.5815577  34.6650035  29.5873054  73.2478033
  33.3844406  30.0090259  72.9967804  34.0264541  29.9971867  73.4457932
  35.7527314  21.9302004  68.1481493  35.3254923  21.8428353  67.3929592
  35.1153367  22.0379780  68.7336337  35.5956922  21.9334664  68.1226934
  34.0824571  30.7732666  70.2220934  34.8716949  30.4221731  70.3423016
  34.2568169  31.5869055  69.9597568  34.2244853  30.8418524  70.2008802
  23.8217881  24.1841392  67.2748723  22.9805888  24.0845266  67.4827617
  24.0307889  24.9536872  67.6263044  23.7282574  24.2833436  67.3576038
  21.2993448  21.8060929  65.1033474  20.9050146  21.8803941  64.3283583
  20.7433565  22.1918876  65.6541835  21.1596261  21.8742704  65.0701133
  32.9358395  14.7842223  64.7837353  33.1407988  14.7164531  65.6294350
  32.6084819  15.5901044  64.7158530  32.9173643  14.8928164  64.8997008
  27.6334546  22.1122791  66.5246320  27.3297684  21.5578780  67.1256728
  26.9313967  22.2915001  66.0374355  27.4850756  22.0567574  66.5416026
  26.6900643  19.4223311  61.0891022  26.9660378  18.7042224  60.6768590
  27.2899313  20.0208231  60.8812128  26.8193908  19.4043682  60.9971783
  25.6952897  29.3272512  71.2318418  25.5873252  29.3374574  72.0980476
  25.9048679  30.1527293  71.0423372  25.7103008  29.4513587  71.3322510
  36.1892083  15.3373987  64.2640118  35.5766396  15.8244390  64.6493850
  36.2856258  14.6617478  64.8077769  36.1129980  15.3092296  64.4018976
  30.1911164  17.0936829  59.3637617  30.6454910  17.2647389  60.0885462
  30.6651210  16.4804939  58.9635393  30.3279484  17.0287714  59.4111379
  23.7126689  26.5785155  68.6940356  23.1214622  27.2194653  68.6643371
  24.4747713  27.0022772  68.6671655  23.7374950  26.7360993  68.6855503
  39.8317111  26.4090924  69.6917634  39.8900235  26.8577573  70.4377611
  39.1983578  26.8189737  69.2547714  39.7468406  26.5364659  69.7370182
  33.4716205  32.0294466  66.1272380  33.2735894  32.5185281  65.4328592
  32.8503917  32.2335708  66.7056514  33.3503770  32.1311004  66.1095604
  27.5324184  23.7979363  60.4682625  28.2766229  24.1853639  60.7065574
  27.6784880  22.9536788  60.6323112  27.6634769  23.7309836  60.5276594
  29.4503759  15.5929622  65.5014486  28.6039804  15.7652430  65.3755836
  29.4474892  14.7878966  65.8380314  29.3250909  15.4990651  65.5325613
  30.5202060  19.3704836  66.3676544  30.0462014  18.8446598  66.8781855
  30.8920195  18.8234309  65.7991405  30.5051949  19.2120833  66.3591691
  36.7838790  24.4307212  67.7783324  36.5437013  23.5913627  67.7825751
  37.2630797  24.5107379  68.5024098  36.8190974  24.3188612  67.8858127
  32.4485559  20.2641391  59.4302298  31.9208578  20.3470135  58.7408007
  32.9081267  21.0059262  59.4266942  32.4387410  20.3862053  59.3276993
  38.7843977  21.2108669  65.7312584  38.5453747  21.1704503  64.8933368
  38.9477879  22.0579821  65.8578305  38.7734281  21.3300754  65.6266065
  35.3890007  25.5958618  71.6617629  36.1124206  25.1431145  71.4828649
  35.1239970  25.8763284  70.8789957  35.4571281  25.5709587  71.5196344
  24.2576876  20.1918792  68.3970508  23.6329946  20.2037184  67.7896461
  23.9222471  20.6678967  69.0461748  24.1162368  20.2637309  68.4027076
  24.4418624  18.5343910  54.4543193  24.0931429  19.1863636  54.9174742
  23.9615070  18.5201023  53.7267064  24.3188868  18.6286964  54.4154284
  20.9702551  28.2519252  69.8374272  20.4402476  27.5611691  69.8869247
  21.2427645  28.2429437  69.0086981  20.9327274  28.1486384  69.7221688
  32.0022642  28.8344954  58.5611955  32.7256841  29.3003067  58.4176528
  31.5623233  28.9018564  57.8109552  32.0438334  28.9128791  58.4296736
  31.1708797  25.6942497  69.8112644  30.5565790  25.1500547  70.1061279
  31.6876082  25.1806733  69.3318460  31.1564459  25.5378906  69.7836872
  30.4105094  26.7646767  67.5456942  29.9832702  26.1396485  67.1122378
  30.4030038  26.4821689  68.3715950  30.3464235  26.6299547  67.6036770
  28.7390804  17.6415521  67.7599476  28.7633291  17.1075634  67.0712256
  28.9902277  17.1332830  68.4225067  28.7800722  17.4876425  67.7564121
  16.2498394  24.9247016  67.1942620  16.1441843  24.8793861  66.3294704
  15.4998614  25.2700797  67.4756905  16.1233997  24.9687924  67.1079950
  25.0192126  16.3686339  67.1405221  25.0590498  16.8695546  67.8539928
  24.1941791  16.4596733  66.8711144  24.9031652  16.4568156  67.2055759
  26.4406489  22.8846849  69.4379120  25.6098419  23.0520667  69.2314368
  26.3858007  22.5082800  70.2228005  26.3095904  22.8536581  69.5227648
  24.8142533  21.1602441  59.9669237  24.9545494  21.6574905  60.6697879
  25.3125066  20.4588735  60.1083451  24.9083614  21.1304420  60.0920816
  24.8442756  22.0269552  57.2961814  25.4787835  22.6229977  57.2311276
  24.9268366  21.7273009  58.1107684  24.9499307  22.0710460  57.4064901
  37.8225321  24.5585029  70.1648178  38.4143162  25.1982280  70.1966376
  38.2584316  23.8608066  70.4540245  37.9743753  24.5503380  70.2129011
  26.4221738  17.9583527  57.2707256  26.7437580  17.4786610  56.6166519
  26.6848682  18.7683173  57.0798068  26.5087764  18.0073425  57.1462748
  29.6518711  28.9802402  70.7906072  29.1443802  29.5338248  71.2346703
  29.3545357  29.0410691  69.9724847  29.5323596  29.0708713  70.7354529
  31.8180893  17.3455721  69.6330735  32.2435965  16.8928248  69.0214262
  31.2037887  16.7915792  69.9095523  31.7909539  17.1969697  69.5835761
  21.3495743  24.2237393  60.5651360  21.8587973  24.8201900  60.9462666
  21.8230016  23.9563366  59.8827780  21.4939119  24.2723208  60.5205883
  32.2626492  32.8965659  58.7210016  31.5455801  32.7226522  58.2557253
  32.9133229  32.6618232  58.1885502  32.2528342  32.8361452  58.5739234
  30.2575116  13.8170821  63.0421312  29.6143434  13.6668467  63.6106451
  29.9174523  13.5713166  62.2770417  30.1120194  13.7582943  63.0124327
  34.8474463  21.7730248  62.4651321  34.1765653  22.3159950  62.3364386
  35.5414213  22.2425103  62.2233016  34.8503330  21.9228519  62.4106849
  28.8961197  33.9126960  67.6963079  28.6726851  33.1545789  68.0647106
  28.4071040  33.9424981  66.9743519  28.7904646  33.8049184  67.6439820
  35.0102590  18.2286131  65.3741694  35.3630200  17.8015854  66.0487493
  34.1517392  18.1436975  65.5042771  34.9352035  18.1530872  65.4936705
  23.7086275  20.8593651  63.4324541  22.9898264  21.2757784  63.6997404
  24.0798638  21.4247890  62.8816179  23.6578207  21.0042933  63.3907348
  33.0085856  21.4921500  69.3226536  32.9883783  21.3104795  70.1761315
  33.0565057  22.3633519  69.2986120  33.0120497  21.5938038  69.4449831
  30.9532186  28.0808692  75.2475013  30.9128041  27.4358369  74.6620169
  31.7655504  28.0245309  75.5600425  31.0675339  27.9767659  75.2071962
  27.5439653  34.1327418  65.1500164  27.1300052  33.4701548  64.7604005
  28.2287028  34.2805277  64.6295858  27.5838025  34.0568076  65.0156661
  30.9104948  33.2917503  65.9023780  30.5121231  33.4019774  65.1344601
  30.2956167  33.4999570  66.4850340  30.7603837  33.3391071  65.8755080
  29.4832850  19.8991651  58.7697920  28.8897689  20.2208648  58.2182487
  29.5208127  19.0532746  58.5619026  29.4007239  19.8215979  58.6580691
  36.4426650  13.3504543  66.3026007  35.9357515  12.6433683  66.2347184
  37.2394084  13.0197732  66.4327083  36.4853890  13.1977695  66.3125002
  32.3590666  19.8571156  62.1999670  32.1304359  19.8803857  61.3578029
  32.6188742  19.0328623  62.3194681  32.3636854  19.7387235  62.0924868
  25.4135429  18.3947702  63.4953866  25.8892795  18.7564782  62.8604047
  24.9124028  19.0504169  63.7754009  25.4100788  18.5441891  63.4430607
  38.6446790  27.8669470  59.2866871  39.0280396  28.6160826  59.5164968
  37.8490904  28.1135290  59.0278860  38.5840572  28.0139164  59.2824445
  27.4562082  20.5388902  56.8627250  27.8361047  20.5568531  56.0778365
  26.7154678  20.9842890  56.7418097  27.4030920  20.6070676  56.7290818
  35.0847372  18.8471093  62.4502829  35.0841599  18.6919749  63.3087105
  34.8803552  19.6934080  62.3944214  35.0547150  18.9491714  62.5690768
  17.1464643  22.2710877  66.8661645  16.9686404  21.8187486  67.5916561
  16.8583665  23.0737039  67.0500123  17.0777596  22.3233435  67.0005148
  32.8088224  23.5268595  66.1039036  33.3041890  22.8091590  66.0643056
  31.9988000  23.2239392  65.9893522  32.7632118  23.3766241  66.0812761
  28.2546836  27.3766408  58.2536040  27.4458159  27.0533081  58.2069349
  28.7621745  26.6699630  58.1864289  28.2096503  27.2247724  58.2366334
  18.8837113  24.8038601  63.9783404  18.0182633  24.7924291  63.8666175
  18.9835929  24.6168824  64.8254544  18.7711280  24.7744662  64.0872349
  34.8740043  26.2772282  68.7916164  35.2995115  25.7546704  68.2386589
  34.5096963  26.8753120  68.2704787  34.8826646  26.2882509  68.6325174
  24.5094123  34.5736500  67.5513510  24.8240682  35.3872888  67.5591292
  24.9187536  34.1886718  68.2195669  24.6162221  34.6365202  67.6517601
  31.4618643  29.9906546  65.1217322  31.9329821  30.7046809  65.2907307
  31.7978821  29.3905297  65.6577191  31.5813758  30.0078011  65.2249698
  33.5495627  31.6007860  77.3009394  33.6592593  30.8116420  77.6566141
  33.8786524  31.5113796  76.4983732  33.6148033  31.4713713  77.2351785
  32.0992589  29.7824481  71.8845014  31.5513535  29.1582364  71.6165080
  32.5605618  29.9718753  71.1689094  32.0859798  29.7183531  71.7395446
  34.9086453  17.8509835  69.2696207  34.3249442  18.3519042  68.8573774
  35.2290747  17.3439391  68.6360530  34.8699629  17.8501670  69.1154714
  27.4481253  16.7650430  59.5454882  28.2696947  16.9348743  59.3036576
  26.9850903  16.9197691  58.8221179  27.5012415  16.8132163  59.4026526
  21.8507143  28.5209608  67.1992118  22.4552001  28.4805442  66.5705939
  21.6434456  29.3680760  67.2296174  21.9096040  28.6397611  67.1108235
  31.6650915  30.7875553  68.4154356  32.4849289  30.6438519  68.6770651
  31.3844993  31.4121752  68.9570793  31.7447659  30.8585905  68.5342295
  17.0858425  27.5044226  67.0691041  16.9882704  26.6940497  67.3781098
  17.8687295  27.4836019  66.6837309  17.1874562  27.3811316  67.0577904
  41.3364251  37.5316056  66.1350162  40.4802146  37.6924554  66.1859279
  41.3831904  36.6608120  66.1555223  41.2163362  37.4266858  66.1456228
  44.6457967  43.8002582  75.7410618  45.3524734  43.3054612  75.8697553
  44.8345903  44.2411663  75.0113277  44.7785873  43.7920932  75.6519664
  44.1816072  39.5908100  68.7781814  44.7272032  40.2693186  68.8375784
  44.1232948  39.4495561  67.9183396  44.2531986  39.6700102  68.6593875
  37.2990146  47.0797166  64.1650166  37.4000509  46.2697520  64.4747294
  36.7031892  46.9854112  63.5349845  37.2262685  46.9462194  64.1176405
  37.1390886  51.9974755  65.5665022  37.7828342  52.4387919  65.9561181
  37.4647142  51.1928181  65.4795281  37.2822715  51.9439950  65.6110500
  30.4955191  43.1017453  63.7902500  30.2605375  42.2685105  63.6834769
  30.6340831  43.3822118  62.9763701  30.4810853  43.0200956  63.6544855
  32.7945278  35.2703183  66.6886808  32.1750310  34.6795830  66.5196823
  32.6929142  35.8614618  66.0551131  32.6882954  35.2707266  66.5691797
  39.8913174  37.0102725  61.0219271  40.5893339  37.1890852  61.5140734
  40.2065506  36.4873064  60.3989660  40.0408511  36.9596497  61.0021281
  32.5214411  38.8155465  68.9330377  32.3973108  39.4017910  69.5680196
  33.1732696  38.3215661  69.2342652  32.5988061  38.8294269  69.0716306
  37.5472752  41.9917182  68.2117888  38.1921755  41.4989625  67.8928836
  37.7874529  42.1341968  69.0383966  37.6783337  41.9394624  68.2867421
  40.0858844  44.8372088  67.8624780  40.3682086  44.0423493  67.6411536
  40.8145004  45.3152675  67.8829841  40.2348407  44.7906685  67.8327796
  38.0640037  32.3795122  65.1040546  37.7343367  32.8306265  64.4344244
  37.3885039  32.3011285  65.6513552  37.9150474  32.4346257  65.0863769
  45.2716445  28.3680644  63.3490156  44.9569886  29.0584123  63.7810579
  44.7543387  28.3125427  62.6475657  45.1480916  28.4615533  63.3087105
  36.5028487  42.2648362  58.2635035  35.9185702  42.7698394  58.6700899
  36.0998582  42.0390749  57.5231627  36.3567791  42.3056611  58.2140060
  32.0572515  47.9803123  65.0658706  31.5740094  48.7053613  65.0418290
  32.8695834  48.2779253  65.1768864  32.1063263  48.1305477  65.0785985
  38.1286669  46.7735304  67.6708521  37.6113611  46.4142719  67.0669829
  38.8261061  46.2497478  67.6814587  38.1552251  46.6432992  67.5838779
  41.7850261  47.2230118  73.6324694  41.8733607  47.0356259  74.4802904
  42.2139974  46.5767548  73.2329541  41.8612364  47.0993126  73.6996445
  39.3520721  46.5061278  72.6142356  38.7891556  46.0933888  73.1382017
  40.1141745  46.4314184  73.0335499  39.3815170  46.4338679  72.7535356
  36.2695991  30.4407410  60.5863493  37.0241960  30.8085727  60.3480543
  36.0923526  30.8146964  61.3542673  36.3550470  30.5505598  60.6648382
  34.9116713  48.4959299  65.2178986  35.6137292  47.9811288  65.2751743
  34.8314196  48.8233451  66.0225861  35.0040473  48.4673525  65.3451778
  49.5630890  36.5901851  68.6311033  48.7259311  36.6604038  68.8658627
  49.5319121  36.5926345  67.7585335  49.4349173  36.6012078  68.5370581
  35.9595619  38.7334886  74.3459401  36.1316123  38.6240781  75.1944683
  36.4964977  39.3789292  74.1090594  36.0640623  38.8126888  74.4364498
  34.6253056  32.8477729  57.2841606  34.4428629  33.0649610  56.4582599
  35.4878669  32.9616742  57.3400221  34.7257646  32.8967627  57.1696093
  34.2367488  44.6865651  64.7264594  35.0756388  44.9188584  64.7738356
  34.2679257  43.8169963  64.6571630  34.3649206  44.5922598  64.7229239
  34.8620191  45.1066526  69.0277900  35.4018416  44.9637657  69.6981272
  34.1790137  45.5063277  69.3961926  34.8412345  45.1446197  69.1812321
  40.3052775  29.8504140  60.3190630  41.0338936  29.6720095  59.8728786
  40.3947668  30.6922219  60.5297808  40.4259437  29.9488018  60.2844148
  44.2861076  40.7857527  64.2222924  45.0418591  41.2189041  64.2611833
  44.3923400  40.1362297  64.7957560  44.4131247  40.7535011  64.3120950
  47.3241247  44.6130804  64.9725327  46.8876479  44.6167547  65.7284298
  46.9904163  45.2936303  64.5404904  47.2103867  44.7143260  65.0206160
  41.8970321  46.6539137  76.2968477  42.6810737  46.7669985  76.6624219
  41.6966915  45.8280274  76.4927163  41.9836346  46.5485857  76.3802863
  30.2657336  41.3266817  69.1812321  29.9995751  40.5105934  69.3403311
  30.2795900  41.3719973  68.3107837  30.2282058  41.2123722  69.0765803
  47.2438730  31.6544632  67.2154755  47.8864638  31.7242737  67.8016670
  47.4961751  30.9873855  66.7134297  47.3760862  31.5670981  67.2282034
  35.0155943  34.8645196  71.8279329  34.3227739  34.3942175  72.0740060
  35.6316270  34.6383500  72.4021036  35.0040472  34.7612327  71.9488482
  42.0540714  48.5649239  69.9434933  41.2555960  48.3248739  70.2008802
  42.5026726  48.6163632  70.6901981  42.0015325  48.5371630  70.0919857
  30.6750750  42.1125597  66.4624065  30.4926323  42.0872483  65.6096358
  31.4100419  42.5824534  66.5012974  30.7564814  42.1786959  66.3421984
  46.7450424  42.3477107  63.6056953  46.9806013  42.4922305  62.7783804
  46.8939988  43.1119515  63.9988467  46.8016227  42.4816161  63.5420557
  33.7396502  38.8310599  72.9706174  34.4636474  38.8163630  73.4571069
  33.8412638  39.5405955  72.4728142  33.8614711  38.9335303  72.9684961
  41.1141451  42.3109684  77.8355121  40.3214432  42.6253196  78.0207741
  41.2290378  42.5261153  76.9975906  41.0136861  42.3893521  77.7393456
  42.0425244  42.2129888  72.7740418  42.6164105  41.5757132  72.9288982
  41.9640047  42.2133970  71.9050075  42.1158479  42.1194999  72.6686829
  30.6421660  38.9919097  66.6123132  31.2195163  38.8555548  67.2515377
  29.9435722  38.5354881  66.8668716  30.6242682  38.9041364  66.7445422
  37.3988962  40.6453153  64.8261615  37.1408207  39.8124888  64.7992915
  37.4537445  40.8710766  63.9854116  37.3688740  40.5550924  64.6981752
  42.4790013  32.7481604  64.9265708  41.7746339  32.2590789  65.0849627
  42.5274987  32.7604078  64.0554152  42.3820064  32.6771252  64.8205048
  36.3723675  38.1990915  65.3126510  35.7973266  38.3583084  65.9490471
  35.9959351  37.5626325  64.8494961  36.2326487  38.1288728  65.3381068
  40.0396963  36.6714265  70.1718888  39.6511396  36.2468482  69.5171080
  39.3751661  36.9196414  70.6795915  39.8843891  36.6452986  70.1506756
  49.6820232  36.4289269  62.9466718  49.4256797  35.6169211  62.7564601
  50.5249546  36.4366837  62.7196906  49.7686258  36.3101267  62.8851536
  26.1180493  37.8430990  63.3270951  26.2040745  37.4662859  64.1084481
  26.7456291  37.4691436  62.8490909  26.2237044  37.7316472  63.3716428
  43.8623325  30.3688893  67.6842873  44.2433836  29.6867065  68.0710747
  43.0586609  30.0798496  67.5018537  43.7999786  30.2255942  67.7146929
  47.3645392  43.5838865  72.7825271  47.1284029  42.7526930  72.6637332
  48.0088620  43.5324473  73.3680115  47.4240062  43.4536553  72.8511165
  37.0143810  44.3734387  63.4968008  37.6517757  44.1346134  64.0419801
  37.4398881  44.5771546  62.7621168  37.1719976  44.3685397  63.4685165
  31.7056452  46.6122723  67.3802311  31.7460597  46.8837574  66.5522091
  32.2650976  47.1364631  67.7960099  31.7939798  46.7298478  67.3194199
  37.6546625  39.5936677  57.8342897  38.0391777  39.3744383  58.5859442
  37.4058245  40.4199622  57.9643973  37.6748697  39.6834823  57.9643973
  37.8215165  32.8743092  77.5505481  37.5068606  33.6442654  77.2875044
  37.5005098  32.3113348  76.9657708  37.7274084  32.9053360  77.4246831
  48.3881812  43.3683314  68.8453566  48.0827629  44.1011371  69.2066881
  47.6688028  42.9621244  68.5646352  48.2369154  43.4165047  68.8566703
  39.3965282  44.8506809  65.1761794  39.4704290  44.6881981  66.0303644
  40.2134788  45.0396999  64.9322275  39.5281640  44.8543552  65.2659819
  54.0883604  40.0076315  68.1721910  54.0208105  40.0272274  67.3024496
  54.0739267  40.8506642  68.3977580  54.0762361  40.1350050  68.0774387
  33.1571038  45.1964672  62.2056237  32.3309156  45.4426409  62.0790516
  33.2183030  45.1176753  63.0718295  33.0445205  45.2209621  62.3145182
  35.3747062  31.2633613  63.1651677  34.5069488  31.3356213  63.2309287
  35.6622266  32.0655692  63.3539653  35.2886810  31.3927760  63.2026444
  44.4979951  31.4111473  71.4962999  45.2433543  31.2221283  71.0826425
  44.0817255  31.9369711  70.9376856  44.5464925  31.4613618  71.3527572
  51.8742222  38.7820701  66.4468504  52.4250143  38.1488770  66.6865596
  51.8586337  39.3136094  67.1384008  51.9527418  38.7669649  66.5847362
  38.5264613  42.6159298  70.9928398  38.0276306  43.3275066  71.0713286
  39.3364837  42.9359965  70.9546560  38.5720719  42.7686147  70.9984966
  35.8775783  49.7908935  62.9735417  35.6576078  49.5006290  63.7662084
  35.6570305  49.1323890  62.4453329  35.8123377  49.6508643  63.0124326
  34.7892730  41.8782251  65.2391119  34.5005979  41.2519723  65.7736846
  35.6576078  41.8202539  65.3055799  34.8752982  41.7769796  65.3282073
  45.5770628  37.0217035  65.5573100  45.2335394  36.3007370  65.9080350
  45.6763670  36.8130886  64.7151459  45.5412671  36.8841238  65.4844780
  38.0443739  51.1638325  61.7566109  38.6967797  50.6314767  61.9857135
  37.3469347  50.8106977  62.1433983  38.0374457  51.0327848  61.8478277
  34.9925003  43.5177502  61.1633484  35.7470971  43.8990541  61.3768946
  34.3995616  43.9688646  61.6180180  35.0161717  43.6406330  61.2616362
  37.4531671  35.4740343  76.2890696  36.6431446  35.7798122  76.1780538
  37.9306357  36.1945925  76.4043280  37.4035149  35.6254944  76.2897767
  36.3123230  44.6886064  66.5373599  35.7903984  44.8286355  67.2225464
  36.6997250  43.9296728  66.7275716  36.2926931  44.5971588  66.6674675
  33.3014414  34.7391873  60.6068554  33.0139210  34.3693143  59.8700501
  33.9884882  35.2086728  60.3452259  33.3603311  34.7538842  60.4583629
  37.7389556  41.7190083  61.9355090  37.5432338  42.3264817  61.3415393
  37.9623901  41.0258027  61.4546764  37.7424197  41.7067608  61.7771171
  36.1368086  38.6044821  62.0535958  36.8590738  38.7685979  61.5939764
  35.6576078  39.3254486  61.9475298  36.1731816  38.7343050  61.9701572
  44.0961593  34.9408620  67.4332643  43.2572694  34.9669898  67.1970907
  44.1665961  35.5879355  68.0137990  43.9829987  35.0404745  67.4841760
  33.7875702  41.0102893  71.1590098  34.2996799  41.2887146  70.5098858
  33.5012045  41.7492187  71.5252911  33.8210566  41.1605247  71.1179976
  42.5430872  31.8393997  62.1660259  43.2457224  31.6401745  61.6880217
  42.2775060  31.0669939  62.4729103  42.6077504  31.6956963  62.1405701
  47.9719117  40.1476606  64.7193885  47.8853092  40.3032032  65.5728664
  47.5169597  40.7914682  64.3453290  47.8922374  40.2652361  64.7900992
  30.8742609  35.5173085  61.4553835  30.9758745  36.3199246  61.7834810
  31.6698495  35.3160421  61.1576915  31.0070514  35.6058984  61.4589190
  37.3059428  33.1029282  71.2191140  37.1142625  33.1184416  72.0690563
  38.1558024  33.2992956  71.1957795  37.4035150  33.1343633  71.3414435
  31.6906341  35.6320263  69.1974956  31.5491833  34.7804204  69.3219464
  31.9746904  35.6748924  68.3737162  31.7114187  35.5120013  69.0942580
  41.8444933  37.4687353  63.3419445  41.5979647  37.3883104  64.1756234
  42.1730056  36.6840821  63.1481972  41.8566177  37.3413619  63.4366968
  45.7392982  44.1770713  67.1306226  45.6007341  44.8751759  67.6354968
  44.9592980  44.0219369  66.7742408  45.6036209  44.2570879  67.1532500
  44.0771067  40.4767088  73.3828608  44.0719106  39.6046905  73.3871034
  44.7832061  40.6755257  72.9098063  44.1816071  40.3770962  73.3135643
  37.8041960  40.2044072  72.7542428  37.9485336  40.7845280  72.1185538
  38.1517609  40.5820369  73.4592282  37.8769422  40.3464776  72.7641423
  39.9761878  39.4034240  70.5367559  39.2285192  39.5965255  70.1315837
  40.1303403  38.5779460  70.2991681  39.8884305  39.3099352  70.4412965
  36.8769715  48.3946844  69.6203454  37.0259279  47.8349760  68.9676859
  37.6569718  48.4738846  70.0035973  37.0143809  48.3232409  69.5800404
  39.4023016  48.5661487  70.8987945  39.3266687  47.8970297  71.4538734
  39.3312875  49.2679275  71.4128612  39.3803623  48.5706394  71.0564793
  40.2163655  33.2984791  71.4262963  40.6736269  34.0308765  71.5535755
  40.2919984  32.8751256  72.1850219  40.2954625  33.3442029  71.5564039
  32.4596646  33.5450611  72.5152407  31.9238836  32.9330969  72.8313174
  32.5214411  34.1198747  73.1686073  32.3892279  33.5397539  72.6587833
  44.6890981  26.4774666  65.2956806  44.8074549  26.9351130  64.5624109
  44.5153156  25.6719927  65.0093024  44.6810152  26.4268438  65.1457740
  38.0946033  35.2886895  68.2704787  37.3042108  35.1078355  68.5922123
  38.4906656  34.5113848  68.2535081  38.0362909  35.1474356  68.3157335
  43.4789719  42.9229325  65.9964233  42.8034721  42.6914557  66.4977620
  43.4882095  42.3150508  65.3706338  43.3808224  42.7988250  65.9780385
  40.6083863  37.7647154  72.7528286  40.5443004  38.6257111  72.6248423
  40.7481051  37.4479147  71.9523837  40.6199333  37.8447321  72.6156499
  39.2902957  40.4579293  66.8944489  38.8665206  40.6583793  66.1583507
  39.1147812  39.6108141  67.0068789  39.2013838  40.3628075  66.8018179
  38.7914650  51.9729806  69.3565946  39.2810581  51.2740596  69.1741611
  38.2198883  51.6753676  69.9442003  38.7799180  51.8256030  69.4166987
  34.5785402  40.9531345  62.3272461  34.7350021  40.8878148  63.1828453
  34.9185995  41.7279897  62.1151141  34.6518637  41.0580543  62.4227055
  44.9881654  44.5391876  78.3092737  45.8016519  44.2677025  78.4697869
  44.8276620  44.2399416  77.5052933  45.0851602  44.4546802  78.2138143
  42.2653816  35.2225533  71.2488125  42.4795785  34.5836447  70.6951479
  41.6487715  35.6671357  70.8195987  42.2059145  35.1935677  71.1038556
  43.6758484  48.1444281  62.6942346  43.2838276  47.8410996  61.9765212
  43.8311556  48.9813371  62.5047300  43.6412074  48.2228118  62.5598843
  31.1519663  38.1366295  62.6433229  31.5318628  38.5550840  61.9793496
  30.5775028  38.7179751  62.9502072  31.1230988  38.2844154  62.5909969
  44.4292904  36.8314598  72.1871432  43.6169586  36.5240489  72.2684605
  44.8882839  36.3513598  72.7514144  44.3773289  36.7151091  72.2826026
  43.8398159  44.7094270  62.6348376  43.4812813  44.8808913  63.4112409
  43.3536869  45.1707476  62.0776375  43.7156855  44.8033241  62.6673646
  41.6568545  28.3325469  66.2375468  40.7862102  28.3064190  66.1908777
  41.9108886  28.1602661  65.4201314  41.5662105  28.3035612  66.1095605
  41.5246411  38.2374670  76.9700134  41.9946043  38.8616786  77.3568009
  41.5708292  37.5691645  77.5293349  41.6014287  38.2309350  77.1100206
  38.6817685  30.3431697  67.6948938  38.1656174  29.6511889  67.8200517
  38.1211614  31.0102474  67.6411537  38.5224198  30.3394955  67.7055004
  40.7509919  30.8824657  69.5241791  40.3641672  30.9073689  70.3055321
  40.2642856  30.3166336  69.0716307  40.6222427  30.8020408  69.5729694
  45.0002898  45.5998166  73.5815577  45.6382618  45.1058362  73.2478033
  44.3576990  45.5275567  72.9967804  44.9997124  45.5157175  73.4457932
  46.7259898  37.4487312  68.1481493  46.2987506  37.3613661  67.3929592
  46.0885951  37.5565088  68.7336337  46.5689505  37.4519972  68.1226934
  40.4167060  27.7691643  71.8152051  41.0460178  28.3051943  71.5373121
  40.5852923  27.6769002  72.6665616  40.5344855  27.8353005  71.9000579
  40.2180975  32.5562837  74.0878462  41.0454404  32.2847986  74.1437077
  40.2388821  33.3523679  74.4442280  40.3433825  32.6342592  74.1493645
  45.0557155  46.2917974  70.2220934  45.8449533  45.9407039  70.3423016
  45.2300752  47.1054363  69.9597568  45.1977436  46.3603832  70.2008802
  34.7950465  39.7026700  67.2748723  33.9538472  39.6030574  67.4827617
  35.0040473  40.4722180  67.6263044  34.7015158  39.8018743  67.3576038
  32.2726032  37.3246237  65.1033474  31.8782730  37.3989249  64.3283583
  31.7166149  37.7104183  65.6541835  32.1328844  37.3928012  65.0701133
  43.9090979  30.3027531  64.7837353  44.1140572  30.2349839  65.6294350
  43.5817403  31.1086352  64.7158530  43.8906227  30.4113472  64.8997008
  38.6067130  37.6308099  66.5246320  38.3030267  37.0764088  67.1256728
  37.9046551  37.8100309  66.0374355  38.4583340  37.5752882  66.5416026
  37.6633227  34.9408619  61.0891022  37.9392961  34.2227532  60.6768590
  38.2631896  35.5393539  60.8812128  37.7926492  34.9228990  60.9971783
  36.6685481  44.8457820  71.2318418  36.5605836  44.8559882  72.0980476
  36.8781262  45.6712600  71.0423372  36.6835592  44.9698895  71.3322510
  47.1624666  30.8559295  64.2640118  46.5498980  31.3429697  64.6493850
  47.2588841  30.1802786  64.8077769  47.0862564  30.8277604  64.4018976
  41.1643747  32.6122136  59.3637617  41.6187494  32.7832697  60.0885462
  41.6383793  31.9990247  58.9635393  41.3012068  32.5473022  59.4111379
  34.6859273  42.0970462  68.6940356  34.0947206  42.7379961  68.6643371
  35.4480296  42.5208080  68.6671655  34.7107533  42.2546301  68.6855503
  35.0819896  33.2572460  69.3608373  35.5421377  33.3311390  70.0983497
  35.1276002  34.0553714  69.0108195  35.1570451  33.3866607  69.4181130
  36.7303245  33.9239155  73.9280401  36.3388810  33.2772502  74.3636178
  36.8989108  34.5150590  74.5474656  36.6974156  33.9153423  74.0843107
  50.8049694  41.9276232  69.6917634  50.8632818  42.3762881  70.4377611
  50.1716162  42.3375045  69.2547714  50.7200989  42.0549967  69.7370182
  44.4448789  47.5479774  66.1272380  44.2468478  48.0370588  65.4328592
  43.8236500  47.7521016  66.7056514  44.3236353  47.6496312  66.1095604
  38.5056767  39.3164671  60.4682625  39.2498812  39.7038947  60.7065574
  38.6517464  38.4722096  60.6323112  38.6367353  39.2495144  60.5276594
  40.4236343  31.1114930  65.5014486  39.5772388  31.2837738  65.3755836
  40.4207475  30.3064273  65.8380314  40.2983493  31.0175959  65.5325613
  41.4934643  34.8890144  66.3676544  41.0194598  34.3631906  66.8781855
  41.8652779  34.3419617  65.7991405  41.4784532  34.7306141  66.3591691
  31.8707673  36.8861651  71.7360090  32.7333286  36.7857360  71.6497419
  31.5399456  36.3056360  71.1745662  31.9492870  36.7853278  71.6405496
  47.7571374  39.9492520  67.7783324  47.5169597  39.1098935  67.7825751
  48.2363381  40.0292687  68.5024098  47.7923558  39.8373920  67.8858127
  49.7576561  36.7293977  65.7312584  49.5186331  36.6889811  64.8933368
  49.9210462  37.5765129  65.8578305  49.7466864  36.8486062  65.6266065
  46.3622591  41.1143926  71.6617629  47.0856790  40.6616453  71.4828649
  46.0972553  41.3948592  70.8789957  46.4303864  41.0894895  71.5196344
  35.2309459  35.7104100  68.3970508  34.6062530  35.7222492  67.7896461
  34.8955054  36.1864275  69.0461748  35.0894951  35.7822617  68.4027076
  31.9435135  43.7704560  69.8374272  31.4135059  43.0796999  69.8869247
  32.2160228  43.7614745  69.0086981  31.9059857  43.6671692  69.7221688
  42.1441380  41.2127805  69.8112644  41.5298374  40.6685855  70.1061279
  42.6608665  40.6992041  69.3318460  42.1297043  41.0564214  69.7836872
  41.3837678  42.2832075  67.5456942  40.9565286  41.6581793  67.1122378
  41.3762622  42.0006996  68.3715950  41.3196819  42.1484855  67.6036770
  34.5000205  37.3197248  70.6145376  34.6593691  36.5640572  71.0197098
  34.3193098  37.8688187  71.2686114  34.4965564  37.2891061  70.7708082
  42.4420508  29.4858483  71.1696166  41.9461069  29.6822157  70.4787733
  43.1989570  29.8851151  70.9984967  42.4807332  29.5736217  71.0416303
  39.7123387  33.1600829  67.7599476  39.7365875  32.6260941  67.0712256
  39.9634861  32.6518138  68.4225067  39.7533306  33.0061733  67.7564121
  27.2230977  40.4432324  67.1942620  27.1174426  40.3979168  66.3294704
  26.4731197  40.7886105  67.4756905  27.0966580  40.4873232  67.1079950
  35.9924710  31.8871647  67.1405221  36.0323081  32.3880854  67.8539928
  35.1674374  31.9782041  66.8711144  35.8764236  31.9753464  67.2055759
  38.1754322  41.4532387  75.2425515  37.3249953  41.5904102  75.3783160
  38.3382450  40.7196166  75.6873217  38.0738186  41.3646489  75.3281114
  37.4139073  38.4032157  69.4379120  36.5831003  38.5705975  69.2314368
  37.3590590  38.0268108  70.2228005  37.2828488  38.3721888  69.5227648
  35.2222856  31.8941050  75.0735530  35.8475560  31.3503183  75.3464963
  34.7673336  31.4135968  74.5043321  35.2471117  31.7430531  75.0297124
  35.7875117  36.6787749  59.9669237  35.9278078  37.1760213  60.6697879
  36.2857650  35.9774043  60.1083451  35.8816198  36.6489728  60.0920816
  35.8175339  37.5454860  57.2961814  36.4520419  38.1415285  57.2311276
  35.9000950  37.2458317  58.1107684  35.9231890  37.5895768  57.4064901
  48.7957905  40.0770337  70.1648178  49.3875745  40.7167588  70.1966376
  49.2316899  39.3793374  70.4540245  48.9476336  40.0688687  70.2129011
  37.3954322  33.4768835  57.2707256  37.7170163  32.9971918  56.6166519
  37.6581266  34.2868481  57.0798068  37.4820347  33.5258733  57.1462748
  40.6251295  44.4987710  70.7906072  40.1176386  45.0523556  71.2346703
  40.3277941  44.5595999  69.9724847  40.5056180  44.5894021  70.7354529
  42.7913477  32.8641029  69.6330735  43.2168549  32.4113556  69.0214262
  42.1770470  32.3101100  69.9095523  42.7642122  32.7155005  69.5835761
  32.3228327  39.7422701  60.5651360  32.8320556  40.3387208  60.9462666
  32.7962599  39.4748674  59.8827780  32.4671703  39.7908516  60.5205883
  41.2307700  29.3356129  63.0421312  40.5876018  29.1853775  63.6106451
  40.8907107  29.0898474  62.2770417  41.0852777  29.2768251  63.0124327
  39.8693780  49.4312268  67.6963079  39.6459435  48.6731097  68.0647106
  39.3803623  49.4610289  66.9743519  39.7637229  49.3234492  67.6439820
  45.9835174  33.7471439  65.3741694  46.3362784  33.3201162  66.0487493
  45.1249975  33.6622283  65.5042771  45.9084618  33.6716180  65.4936705
  34.6818859  36.3778959  63.4324541  33.9630848  36.7943092  63.6997404
  35.0531221  36.9433198  62.8816179  34.6310791  36.5228241  63.3907348
  43.9818440  37.0106808  69.3226536  43.9616367  36.8290103  70.1761315
  44.0297640  37.8818826  69.2986120  43.9853081  37.1123346  69.4449831
  41.9264769  43.5994000  75.2475013  41.8860624  42.9543677  74.6620169
  42.7388088  43.5430617  75.5600425  42.0407923  43.4952967  75.2071962
  38.5172237  49.6512726  65.1500164  38.1032636  48.9886856  64.7604005
  39.2019611  49.7990585  64.6295858  38.5570609  49.5753384  65.0156661
  41.8837531  48.8102811  65.9023780  41.4853814  48.9205081  65.1344601
  41.2688751  49.0184877  66.4850340  41.7336420  48.8576379  65.8755080
  40.4565433  35.4176959  58.7697920  39.8630272  35.7393955  58.2182487
  40.4940711  34.5718054  58.5619026  40.3739822  35.3401287  58.6580691
  47.4159234  28.8689851  66.3026007  46.9090099  28.1618991  66.2347184
  48.2126668  28.5383040  66.4327083  47.4586473  28.7163003  66.3125002
  37.6142478  37.2290936  71.8024771  37.1021381  36.6212119  72.1609802
  37.4421974  37.9447529  72.2698746  37.5132115  37.2454236  71.9240994
  32.4608193  35.6728512  74.4527132  32.2910783  36.3329887  73.9075339
  32.0174143  35.8835073  75.1739621  32.3707526  35.8014494  74.4788762
  36.3868012  33.9133010  63.4953866  36.8625379  34.2750090  62.8604047
  35.8856612  34.5689477  63.7754009  36.3833371  34.0627199  63.4430607
  41.4911549  35.1515181  74.2427026  42.0482979  34.9228991  73.6105492
  41.1672614  35.9120847  73.9662238  41.5257959  35.2299018  74.1083523
  29.3610257  38.5775377  69.7115622  28.8136977  37.9076023  69.8296490
  30.1502636  38.2105225  69.7759089  29.3962441  38.4240364  69.7384323
  39.2094666  38.2382834  75.2079033  39.9605993  38.5534511  75.5218587
  39.4017242  38.0362005  74.3812955  39.3486080  38.2550216  75.1322429
  46.0579956  34.3656401  62.4502829  46.0574182  34.2105057  63.3087105
  45.8536136  35.2119388  62.3944214  46.0279734  34.4677022  62.5690768
  28.1197227  37.7896185  66.8661645  27.9418988  37.3372794  67.5916561
  27.8316249  38.5922347  67.0500123  28.0510180  37.8418743  67.0005148
  43.7820808  39.0453903  66.1039036  44.2774473  38.3276898  66.0643056
  42.9720584  38.7424700  65.9893522  43.7364701  38.8951549  66.0812761
  29.8569697  40.3223909  63.9783404  28.9915216  40.3109599  63.8666175
  29.9568513  40.1354132  64.8254544  29.7443864  40.2929970  64.0872349
  45.8472627  41.7957590  68.7916164  46.2727698  41.2732012  68.2386589
  45.4829547  42.3938427  68.2704787  45.8559229  41.8067817  68.6325174
  35.4826707  50.0921808  67.5513510  35.7973266  50.9058196  67.5591292
  35.8920120  49.7072026  68.2195669  35.5894805  50.1550510  67.6517601
  42.4351226  45.5091854  65.1217322  42.9062404  46.2232117  65.2907307
  42.7711405  44.9090604  65.6577191  42.5546341  45.5263319  65.2249698
  44.5228211  47.1193168  77.3009394  44.6325176  46.3301728  77.6566141
  44.8519107  47.0299104  76.4983732  44.5880617  46.9899021  77.2351785
  39.3520721  30.2819325  72.0775417  39.4848627  29.4850318  72.4056392
  39.7365874  30.8085728  72.6573692  39.4277050  30.2419242  72.2118919
  43.0725173  45.3009788  71.8845014  42.5246119  44.6767672  71.6165080
  43.5338201  45.4904061  71.1689094  43.0592382  45.2368839  71.7395446
  42.4253076  27.2049651  68.6756510  41.6199040  27.0947381  68.9924348
  42.2959812  27.3062107  67.8186376  42.2873209  27.2033321  68.5964550
  45.8819037  33.3695143  69.2696207  45.2982026  33.8704349  68.8573774
  46.2023331  32.8624699  68.6360530  45.8432212  33.3686978  69.1154714
  38.4213836  32.2835738  59.5454882  39.2429530  32.4534051  59.3036576
  37.9583487  32.4382999  58.8221179  38.4744998  32.3317471  59.4026526
  37.0109168  30.2778500  70.3253310  37.5553581  29.9369627  70.9157652
  37.0646104  31.1363962  70.4674595  37.0998287  30.3533759  70.4335184
  32.8239727  44.0394916  67.1992118  33.4284584  43.9990750  66.5705939
  32.6167039  44.8866068  67.2296174  32.8828624  44.1582919  67.1108235
  42.6383499  46.3060861  68.4154356  43.4581873  46.1623827  68.6770651
  42.3577577  46.9307060  68.9570793  42.7180242  46.3771213  68.5342295
  28.0591009  43.0229534  67.0691041  27.9615287  42.2125805  67.3781098
  28.8419879  43.0021327  66.6837309  28.1607146  42.8996624  67.0577904
  59.1097149  53.9625713  61.3797232  59.0791154  54.8170350  61.5515501
  59.7078498  53.6621005  61.9383376  59.1934307  54.0442209  61.4872034
  52.3096834  53.0501364  66.1350162  51.4534730  53.2109862  66.1859279
  52.3564488  52.1793428  66.1555223  52.1895946  52.9452166  66.1456228
  46.6937974  62.5864082  61.8987394  45.9420873  62.2079620  61.6703439
  47.1423986  62.6182515  61.1506204  46.6487641  62.5349689  61.7544896
  52.1462934  63.0089451  57.3272941  51.8114302  63.6866373  56.8917163
  52.6589804  62.6194763  56.7389813  52.1728515  63.0514029  57.1759733
  51.6867225  64.9603720  63.2684053  52.0706604  65.5290619  62.7288828
  51.6226366  64.2353230  62.7889869  51.7340652  64.9379183  63.1177915
  55.1548655  55.1093408  68.7781814  55.7004615  55.7878494  68.8375784
  55.0965531  54.9680869  67.9183396  55.2264570  55.1885410  68.6593875
  48.2722730  62.5982474  64.1650166  48.3733093  61.7882828  64.4747294
  47.6764475  62.5039420  63.5349845  48.1995269  62.4647502  64.1176405
  56.9313724  56.5378015  59.6515542  56.8153250  57.2885701  60.0807680
  57.7269610  56.2801968  59.9011629  57.0318313  56.6112862  59.7519633
  48.1123470  67.5160063  65.5665022  48.7560925  67.9573227  65.9561181
  48.4379725  66.7113489  65.4795281  48.2555298  67.4625258  65.6110500
  41.4687774  58.6202760  63.7902500  41.2337959  57.7870413  63.6834769
  41.6073415  58.9007426  62.9763701  41.4543437  58.5386264  63.6544855
  43.7677862  50.7888491  66.6886808  43.1482893  50.1981138  66.5196823
  43.6661725  51.3799926  66.0551131  43.6615537  50.7892574  66.5691797
  48.8144049  60.5272038  60.9384884  49.1359890  61.0677245  60.3346192
  49.4616146  59.9568809  61.0707174  48.9570105  60.5231213  60.8691920
  50.8645757  52.5288033  61.0219271  51.5625922  52.7076160  61.5140734
  51.1798090  52.0058372  60.3989660  51.0141095  52.4781805  61.0021281
  43.4946995  54.3340773  68.9330377  43.3705692  54.9203218  69.5680196
  44.1465279  53.8400969  69.2342652  43.5720644  54.3479577  69.0716306
  51.0533693  58.9158478  61.0099062  51.4927328  58.3075578  61.4553835
  50.9038356  58.5365851  60.2384527  51.0955158  58.7696949  60.9618230
  48.5205336  57.5102490  68.2117888  49.1654338  57.0174933  67.8928836
  48.7607113  57.6527276  69.0383966  48.6515921  57.4579932  68.2867421
  51.0591427  60.3557396  67.8624780  51.3414670  59.5608801  67.6411536
  51.7877588  60.8337983  67.8829841  51.2080991  60.3091993  67.8327796
  54.6543029  57.2685659  57.9629832  54.5694324  58.1246626  58.1079400
  55.1427413  56.9929983  58.6311991  54.7131927  57.3542981  58.0831913
  56.2449029  43.8865952  63.3490156  55.9302470  44.5769431  63.7810579
  55.7275970  43.8310735  62.6475657  56.1213499  43.9800841  63.3087105
  55.5861463  53.8870453  59.4627567  55.0572934  54.1030087  60.1224873
  56.1086482  54.5806592  59.3828536  55.5849916  54.0213590  59.5483166
  61.0409515  59.4616758  64.8360611  60.2107219  59.6727401  64.9994028
  60.9918768  58.6353812  64.5602895  60.9116251  59.3706364  64.8197977
  47.4761070  57.7833670  58.2635035  46.8918286  58.2883702  58.6700899
  47.0731166  57.5576057  57.5231627  47.3300374  57.8241918  58.2140060
  43.0305099  63.4988431  65.0658706  42.5472677  64.2238921  65.0418290
  43.8428417  63.7964561  65.1768864  43.0795847  63.6490785  65.0785985
  49.1019253  62.2920612  67.6708521  48.5846195  61.9328027  67.0669829
  49.7993644  61.7682786  67.6814587  49.1284834  62.1618300  67.5838779
  51.9338285  54.0299322  56.7403955  52.1734288  54.2377306  55.9279298
  52.2554126  53.2256831  56.8492900  52.0175443  53.9413423  56.6364508
  45.8849296  64.0144607  65.2178986  46.5869876  63.4996596  65.2751743
  45.8046779  64.3418759  66.0225861  45.9773057  63.9858833  65.3451778
  60.5363474  52.1087158  68.6311033  59.6991895  52.1789346  68.8658627
  60.5051705  52.1111653  67.7585335  60.4081756  52.1197385  68.5370581
  46.9328203  54.2520194  74.3459401  47.1048707  54.1426089  75.1944683
  47.4697560  54.8974600  74.1090594  47.0373207  54.3312196  74.4364498
  45.2100072  60.2050959  64.7264594  46.0488971  60.4373892  64.7738356
  45.2411841  59.3355271  64.6571630  45.3381789  60.1107906  64.7229239
  45.8352775  60.6251834  69.0277900  46.3751000  60.4822965  69.6981272
  45.1522721  61.0248585  69.3961926  45.8144929  60.6631505  69.1812321
  55.2593660  56.3042835  64.2222924  56.0151175  56.7374349  64.2611833
  55.3655984  55.6547605  64.7957560  55.3863830  56.2720319  64.3120950
  58.2973831  60.1316112  64.9725327  57.8609063  60.1352855  65.7284298
  57.9636746  60.8121611  64.5404904  58.1836451  60.2328568  65.0206160
  41.2389920  56.8452125  69.1812321  40.9728335  56.0291242  69.3403311
  41.2528484  56.8905281  68.3107837  41.2014642  56.7309030  69.0765803
  58.2171314  47.1729940  67.2154755  58.8597222  47.2428045  67.8016670
  58.4694334  46.5059163  66.7134297  58.3493446  47.0856289  67.2282034
  45.9888526  50.3830503  71.8279329  45.2960323  49.9127483  72.0740060
  46.6048853  50.1568808  72.4021036  45.9773056  50.2797635  71.9488482
  61.4318177  56.8497032  63.8644964  62.0934611  56.2887701  63.7640873
  60.7909589  56.3549063  64.1897655  61.4347044  56.6933441  63.8977304
  52.3194985  60.1467164  56.1725888  52.7346133  59.8152187  55.4810383
  51.4886914  59.9136066  56.0446024  52.2582993  60.0638420  56.0516735
  41.6483333  57.6310905  66.4624065  41.4658907  57.6057791  65.6096358
  42.3833002  58.1009842  66.5012974  41.7297397  57.6972267  66.3421984
  57.7183008  57.8662415  63.6056953  57.9538597  58.0107613  62.7783804
  57.8672571  58.6304823  63.9988467  57.7748811  58.0001469  63.5420557
  44.7129085  54.3495907  72.9706174  45.4369057  54.3348938  73.4571069
  44.8145222  55.0591263  72.4728142  44.8347294  54.4520611  72.9684961
  59.5473464  56.7064080  61.4426557  59.8781681  57.2391721  60.8366652
  60.1206552  56.7602968  62.0988508  59.6807143  56.7933649  61.4504339
  54.7605353  54.5528983  62.1250137  54.8552208  55.2918277  62.5789762
  54.1364197  54.1246459  62.5584701  54.6814384  54.5990304  62.2558284
  41.6154244  54.5104405  66.6123132  42.1927746  54.3740856  67.2515377
  40.9168305  54.0540189  66.8668716  41.5975265  54.4226671  66.7445422
  55.0128375  56.3977723  55.3587089  54.9308537  56.4679910  56.2242076
  55.6508095  56.9607467  55.1670830  55.0948212  56.4916694  55.4577038
  48.3721546  56.1638461  64.8261615  48.1140790  55.3310196  64.7992915
  48.4270029  56.3896074  63.9854116  48.3421324  56.0736232  64.6981752
  47.3456258  53.7176223  65.3126510  46.7705849  53.8768392  65.9490471
  46.9691934  53.0811632  64.8494961  47.2059070  53.6474036  65.3381068
  51.0129547  52.1899573  70.1718888  50.6243979  51.7653790  69.5171080
  50.3484245  52.4381722  70.6795915  50.8576474  52.1638294  70.1506756
  60.6552816  51.9474577  62.9466718  60.3989381  51.1354519  62.7564601
  61.4982130  51.9552144  62.7196906  60.7418841  51.8286575  62.8851536
  37.0913077  53.3616298  63.3270951  37.1773329  52.9848166  64.1084481
  37.7188874  52.9876744  62.8490909  37.1969628  53.2501780  63.3716428
  54.8355908  45.8874201  67.6842873  55.2166420  45.2052373  68.0710747
  54.0319193  45.5983804  67.5018537  54.7732370  45.7441250  67.7146929
  52.1168485  56.4198177  58.3695695  52.9309124  56.7113070  58.2578467
  52.0527626  55.7658040  57.7953988  52.2271224  56.3663372  58.2684533
  47.9876393  59.8919695  63.4968008  48.6250340  59.6531442  64.0419801
  48.4131465  60.0956854  62.7621168  48.1452559  59.8870705  63.4685165
  42.6789036  62.1308031  67.3802311  42.7193181  62.4022882  66.5522091
  43.2383560  62.6549939  67.7960099  42.7672382  62.2483786  67.3194199
  48.6279208  55.1121984  57.8342897  49.0124361  54.8929691  58.5859442
  48.3790829  55.9384930  57.9643973  48.6481281  55.2020131  57.9643973
  48.7947749  48.3928400  77.5505481  48.4801190  49.1627962  77.2875044
  48.4737681  47.8298656  76.9657708  48.7006668  48.4238668  77.4246831
  50.3697865  60.3692117  65.1761794  50.4436873  60.2067289  66.0303644
  51.1867372  60.5582307  64.9322275  50.5014224  60.3728860  65.2659819
  44.1303622  60.7149980  62.2056237  43.3041740  60.9611717  62.0790516
  44.1915613  60.6362061  63.0718295  44.0177789  60.7394929  62.3145182
  46.3479646  46.7818921  63.1651677  45.4802071  46.8541521  63.2309287
  46.6354850  47.5841000  63.3539653  46.2619394  46.9113068  63.2026444
  55.4712534  46.9296781  71.4962999  56.2166126  46.7406591  71.0826425
  55.0549839  47.4555018  70.9376856  55.5197509  46.9798926  71.3527572
  48.9102451  63.3326860  59.9075267  49.2000749  62.9415842  59.1834494
  49.6405932  63.5143565  60.3480542  49.0609335  63.3020674  59.8658074
  62.8474805  54.3006009  66.4468504  63.3982727  53.6674078  66.6865596
  62.8318921  54.8321402  67.1384008  62.9260002  54.2854957  66.5847362
  49.4997196  58.1344606  70.9928398  49.0008890  58.8460374  71.0713286
  50.3097420  58.4545273  70.9546560  49.5453303  58.2871455  70.9984966
  46.8508366  65.3094243  62.9735417  46.6308662  65.0191598  63.7662084
  46.6302889  64.6509198  62.4453329  46.7855961  65.1693951  63.0124326
  45.7625314  57.3967559  65.2391119  45.4738562  56.7705031  65.7736846
  46.6308662  57.3387847  65.3055799  45.8485566  57.2955104  65.3282073
  56.5503211  52.5402343  65.5573100  56.2067977  51.8192678  65.9080350
  56.6496254  52.3316194  64.7151459  56.5145254  52.4026546  65.4844780
  49.0176322  66.6823633  61.7566109  49.6700380  66.1500075  61.9857135
  48.3201931  66.3292285  62.1433983  49.0107040  66.5513156  61.8478277
  45.9657587  59.0362810  61.1633484  46.7203555  59.4175849  61.3768946
  45.3728200  59.4873954  61.6180180  45.9894301  59.1591638  61.2616362
  57.0116241  59.0028047  61.0997089  57.5774273  59.6621257  61.0155631
  56.3644144  59.3477745  61.5713491  56.9994997  59.1509988  61.1569845
  48.4264254  50.9925651  76.2890696  47.6164030  51.2983430  76.1780538
  48.9038941  51.7131233  76.4043280  48.3767733  51.1440252  76.2897767
  47.2855814  60.2071372  66.5373599  46.7636567  60.3471663  67.2225464
  47.6729834  59.4482036  66.7275716  47.2659515  60.1156896  66.6674675
  44.2746998  50.2577180  60.6068554  43.9871793  49.8878451  59.8700501
  44.9617466  50.7272036  60.3452259  44.3335895  50.2724150  60.4583629
  53.4822819  61.9466831  60.5234168  53.2409495  61.2134692  60.1161233
  53.6624152  62.4953688  59.8700501  53.4730443  61.9189222  60.3664391
  48.7122139  57.2375391  61.9355090  48.5164922  57.8450125  61.3415393
  48.9356485  56.5443335  61.4546764  48.7156780  57.2252916  61.7771171
  47.1100669  54.1230129  62.0535958  47.8323321  54.2871287  61.5939764
  46.6308662  54.8439793  61.9475298  47.1464400  54.2528358  61.9701572
  55.0694177  50.4593927  67.4332643  54.2305277  50.4855206  67.1970907
  55.1398544  51.1064663  68.0137990  54.9562570  50.5590053  67.4841760
  44.7608286  56.5288201  71.1590098  45.2729383  56.8072454  70.5098858
  44.4744629  57.2677495  71.5252911  44.7943149  56.6790555  71.1179976
  58.9451701  55.6661914  64.7193885  58.8585675  55.8217340  65.5728664
  58.4902181  56.3099990  64.3453290  58.8654957  55.7837669  64.7900992
  41.8475192  51.0358393  61.4553835  41.9491329  51.8384554  61.7834810
  42.6431079  50.8345729  61.1576915  41.9803098  51.1244292  61.4589190
  48.2792011  48.6214590  71.2191140  48.0875208  48.6369724  72.0690563
  49.1290607  48.8178264  71.1957795  48.3767733  48.6528941  71.3414435
  42.6638924  51.1505571  69.1974956  42.5224416  50.2989512  69.3219464
  42.9479488  51.1934232  68.3737162  42.6846770  51.0305321  69.0942580
  52.8177517  52.9872661  63.3419445  52.5712231  52.9068412  64.1756234
  53.1462640  52.2026129  63.1481972  52.8298760  52.8598927  63.4366968
  56.7125566  59.6956021  67.1306226  56.5739925  60.3937066  67.6354968
  55.9325563  59.5404677  66.7742408  56.5768792  59.7756187  67.1532500
  48.7774544  55.7229380  72.7542428  48.9217920  56.3030588  72.1185538
  49.1250193  56.1005677  73.4592282  48.8502005  55.8650084  72.7641423
  50.9494461  54.9219548  70.5367559  50.2017775  55.1150563  70.1315837
  51.1035987  54.0964768  70.2991681  50.8616889  54.8284660  70.4412965
  47.8502299  63.9132152  69.6203454  47.9991863  63.3535068  68.9676859
  48.6302301  63.9924153  70.0035973  47.9876393  63.8417717  69.5800404
  58.2078938  59.0534274  57.8922725  57.8285747  58.2671412  57.8852014
  57.5445184  59.6021131  57.7494369  58.0537413  59.0179098  57.8703522
  51.1896238  48.8170099  71.4262963  51.6468853  49.5494073  71.5535755
  51.2652567  48.3936564  72.1850219  51.2687208  48.8627337  71.5564039
  43.4329230  49.0635919  72.5152407  42.8971419  48.4516277  72.8313174
  43.4946994  49.6384055  73.1686073  43.3624862  49.0582846  72.6587833
  55.6623564  41.9959974  65.2956806  55.7807132  42.4536437  64.5624109
  55.4885740  41.1905235  65.0093024  55.6542735  41.9453746  65.1457740
  51.0325847  62.6047793  61.7311551  51.7975738  62.3357437  61.4094216
  50.9303937  62.1197804  62.4481614  51.1307342  62.4937358  61.7891379
  49.0678616  50.8072203  68.2704787  48.2774691  50.6263663  68.5922123
  49.4639239  50.0299155  68.2535081  49.0095493  50.6659664  68.3157335
  53.5544507  59.6359977  53.7111501  54.3217492  59.6960102  53.3017352
  53.1075816  59.0640419  53.2267819  53.6017934  59.5596553  53.5789211
  54.4522303  58.4414633  65.9964233  53.7767304  58.2099865  66.4977620
  54.4614679  57.8335816  65.3706338  54.3540807  58.3173558  65.9780385
  51.5816447  53.2832462  72.7528286  51.5175588  54.1442418  72.6248423
  51.7213634  52.9664455  71.9523837  51.5931917  53.3632629  72.6156499
  56.4539037  61.2979765  58.2274411  56.5358875  62.1046752  57.9035862
  56.9388779  61.3175725  58.9515184  56.5376195  61.4200428  58.2861310
  50.2635541  55.9764601  66.8944489  49.8397790  56.1769100  66.1583507
  50.0880396  55.1293449  67.0068789  50.1746421  55.8813383  66.8018179
  45.5517985  56.4716653  62.3272461  45.7082605  56.4063456  63.1828453
  45.8918579  57.2465205  62.1151141  45.6251220  56.5765851  62.4227055
  52.0897130  55.8474536  61.1965825  52.6312676  55.3444918  61.6604445
  52.4043689  55.7939731  60.3855310  52.2161527  55.7653957  61.1449637
  50.2583580  61.2391888  58.4805853  50.3276400  60.3806426  58.6198853
  51.0372035  61.4563769  58.1524877  50.3836430  61.1444752  58.4523010
  53.2386399  50.7410841  71.2488125  53.4528369  50.1021755  70.6951479
  52.6220299  51.1856665  70.8195987  53.1791729  50.7120985  71.1038556
  54.6491067  63.6629589  62.6942346  54.2570859  63.3596304  61.9765212
  54.8044140  64.4998679  62.5047300  54.6144657  63.7413426  62.5598843
  42.1252247  53.6551603  62.6433229  42.5051212  54.0736148  61.9793496
  41.5507612  54.2365059  62.9502072  42.0963572  53.8029462  62.5909969
  55.4025487  52.3499906  72.1871432  54.5902169  52.0425796  72.2684605
  55.8615422  51.8698906  72.7514144  55.3505872  52.2336398  72.2826026
  54.8130742  60.2279578  62.6348376  54.4545397  60.3994221  63.4112409
  54.3269453  60.6892784  62.0776375  54.6889439  60.3218549  62.6673646
  52.6301128  43.8510777  66.2375468  51.7594686  43.8249498  66.1908777
  52.8841469  43.6787969  65.4201314  52.5394688  43.8220920  66.1095605
  49.6019108  55.9078743  55.1748611  49.8911632  56.6843626  55.4492185
  49.6890906  55.3967475  55.8763110  49.6573364  55.9470662  55.3191109
  49.6550269  45.8617005  67.6948938  49.1388757  45.1697196  67.8200517
  49.0944198  46.5287782  67.6411537  49.4956782  45.8580263  67.7055004
  57.6992482  52.9672620  68.1481493  57.2720090  52.8798969  67.3929592
  57.0618535  53.0750396  68.7336337  57.5422089  52.9705280  68.1226934
  51.3899644  43.2876951  71.8152051  52.0192762  43.8237251  71.5373121
  51.5585507  43.1954309  72.6665616  51.5077438  43.3538313  71.9000579
  51.1913559  48.0748145  74.0878462  52.0186988  47.8033294  74.1437077
  51.2121405  48.8708987  74.4442280  51.3166409  48.1527899  74.1493645
  45.7683049  55.2212008  67.2748723  44.9271055  55.1215882  67.4827617
  45.9773056  55.9907488  67.6263044  45.6747741  55.3204051  67.3576038
  43.2458615  52.8431545  65.1033474  42.8515313  52.9174557  64.3283583
  42.6898732  53.2289491  65.6541835  43.1061428  52.9113320  65.0701133
  54.8823562  45.8212839  64.7837353  55.0873156  45.7535147  65.6294350
  54.5549986  46.6271660  64.7158530  54.8638810  45.9298779  64.8997008
  49.5799713  53.1493407  66.5246320  49.2762851  52.5949396  67.1256728
  48.8779134  53.3285617  66.0374355  49.4315923  53.0938190  66.5416026
  47.6418064  60.3643128  71.2318418  47.5338419  60.3745190  72.0980476
  47.8513846  61.1897908  71.0423372  47.6568175  60.4884203  71.3322510
  58.1357250  46.3744603  64.2640118  57.5231564  46.8615005  64.6493850
  58.2321425  45.6988094  64.8077769  58.0595148  46.3462912  64.4018976
  45.6591856  57.6155770  68.6940356  45.0679790  58.2565269  68.6643371
  46.4212880  58.0393388  68.6671655  45.6840117  57.7731609  68.6855503
  46.0552479  48.7757768  69.3608373  46.5153961  48.8496698  70.0983497
  46.1008586  49.5739022  69.0108195  46.1303035  48.9051915  69.4181130
  47.7035829  49.4424463  73.9280401  47.3121394  48.7957810  74.3636178
  47.8721692  50.0335898  74.5474656  47.6706739  49.4338731  74.0843107
  55.4181373  63.0665082  66.1272380  55.2201061  63.5555896  65.4328592
  54.7969084  63.2706323  66.7056514  55.2968937  63.1681620  66.1095604
  49.4789351  54.8349979  60.4682625  50.2231396  55.2224255  60.7065574
  49.6250047  53.9907404  60.6323112  49.6099936  54.7680452  60.5276594
  52.4667227  50.4075452  66.3676544  51.9927181  49.8817214  66.8781855
  52.8385363  49.8604925  65.7991405  52.4517116  50.2491449  66.3591691
  42.8440257  52.4046959  71.7360090  43.7065870  52.3042668  71.6497419
  42.5132040  51.8241668  71.1745662  42.9225453  52.3038585  71.6405496
  58.7303957  55.4677828  67.7783324  58.4902180  54.6284243  67.7825751
  59.2095965  55.5477994  68.5024098  58.7656141  55.3559227  67.8858127
  60.7309144  52.2479285  65.7312584  60.4918914  52.2075119  64.8933368
  60.8943046  53.0950437  65.8578305  60.7199448  52.3671370  65.6266065
  46.2042043  51.2289408  68.3970508  45.5795113  51.2407800  67.7896461
  45.8687638  51.7049583  69.0461748  46.0627535  51.3007925  68.4027076
  42.9167718  59.2889868  69.8374272  42.3867643  58.5982307  69.8869247
  43.1892812  59.2800053  69.0086981  42.8792441  59.1857000  69.7221688
  53.9487809  59.8715570  58.5611955  54.6722008  60.3373683  58.4176528
  53.5088400  59.9389180  57.8109552  53.9903501  59.9499407  58.4296736
  53.1173964  56.7313112  69.8112644  52.5030957  56.1871163  70.1061279
  53.6341249  56.2177349  69.3318460  53.1029626  56.5749522  69.7836872
  52.3570261  57.8017382  67.5456942  51.9297869  57.1767101  67.1122378
  52.3495206  57.5192304  68.3715950  52.2929402  57.6670163  67.6036770
  45.4732788  52.8382556  70.6145376  45.6326275  52.0825880  71.0197098
  45.2925682  53.3873495  71.2686114  45.4698147  52.8076369  70.7708082
  53.4153091  45.0043791  71.1696166  52.9193653  45.2007465  70.4787733
  54.1722153  45.4036459  70.9984967  53.4539916  45.0921525  71.0416303
  50.6855971  48.6786137  67.7599476  50.7098458  48.1446249  67.0712256
  50.9367445  48.1703446  68.4225067  50.7265890  48.5247041  67.7564121
  38.1963561  55.9617632  67.1942620  38.0907010  55.9164476  66.3294704
  37.4463781  56.3071413  67.4756905  38.0699164  56.0058540  67.1079950
  46.9657293  47.4056955  67.1405221  47.0055665  47.9066162  67.8539928
  46.1406958  47.4967349  66.8711144  46.8496819  47.4938772  67.2055759
  48.3871657  53.9217465  69.4379120  47.5563586  54.0891283  69.2314368
  48.3323174  53.5453416  70.2228005  48.2561071  53.8907196  69.5227648
  46.1955440  47.4126358  75.0735530  46.8208143  46.8688491  75.3464963
  45.7405920  46.9321276  74.5043321  46.2203700  47.2615839  75.0297124
  46.7607700  52.1973057  59.9669237  46.9010661  52.6945521  60.6697879
  47.2590233  51.4959351  60.1083451  46.8548781  52.1675035  60.0920816
  46.7907923  53.0640168  57.2961814  47.4253002  53.6600593  57.2311276
  46.8733534  52.7643625  58.1107684  46.8964474  53.1081076  57.4064901
  53.7646061  48.3826337  69.6330735  54.1901132  47.9298863  69.0214262
  53.1503054  47.8286408  69.9095523  53.7374706  48.2340313  69.5835761
  43.2960911  55.2608008  60.5651360  43.8053140  55.8572516  60.9462666
  43.7695183  54.9933982  59.8827780  43.4404286  55.3093824  60.5205883
  54.2091659  63.9336275  58.7210016  53.4920968  63.7597137  58.2557253
  54.8598396  63.6988847  58.1885502  54.1993509  63.8732068  58.5739234
  56.7939630  52.8100864  62.4651321  56.1230820  53.3530566  62.3364386
  57.4879380  53.2795719  62.2233016  56.7968497  52.9599135  62.4106849
  50.8426364  64.9497576  67.6963079  50.6192018  64.1916405  68.0647106
  50.3536207  64.9795597  66.9743519  50.7369813  64.8419800  67.6439820
  56.9567757  49.2656747  65.3741694  57.3095367  48.8386470  66.0487493
  56.0982559  49.1807591  65.5042771  56.8817202  49.1901488  65.4936705
  45.6551442  51.8964267  63.4324541  44.9363431  52.3128400  63.6997404
  46.0263805  52.4618506  62.8816179  45.6043374  52.0413548  63.3907348
  54.9551023  52.5292116  69.3226536  54.9348951  52.3475411  70.1761315
  55.0030224  53.4004134  69.2986120  54.9585664  52.6308654  69.4449831
  49.4904821  65.1698034  65.1500164  49.0765219  64.5072164  64.7604005
  50.1752195  65.3175893  64.6295858  49.5303192  65.0938692  65.0156661
  52.8570115  64.3288119  65.9023780  52.4586398  64.4390389  65.1344601
  52.2421334  64.5370185  66.4850340  52.7069004  64.3761687  65.8755080
  58.3891817  44.3875159  66.3026007  57.8822682  43.6804299  66.2347184
  59.1859251  44.0568348  66.4327083  58.4319057  44.2348311  66.3125002
  54.3055833  50.8941771  62.1999670  54.0769526  50.9174473  61.3578029
  54.5653910  50.0699238  62.3194681  54.3102021  50.7757851  62.0924868
  48.5875062  52.7476244  71.8024771  48.0753965  52.1397427  72.1609802
  48.4154558  53.4632837  72.2698746  48.4864699  52.7639544  71.9240994
  43.4340776  51.1913820  74.4527132  43.2643367  51.8515195  73.9075339
  42.9906726  51.4020381  75.1739621  43.3440110  51.3199802  74.4788762
  47.3600596  49.4318318  63.4953866  47.8357962  49.7935398  62.8604047
  46.8589195  50.0874785  63.7754009  47.3565955  49.5812506  63.4430607
  60.5911957  58.9040086  59.2866871  60.9745563  59.6531442  59.5164968
  59.7956071  59.1505905  59.0278860  60.5305740  59.0509780  59.2824445
  52.4644132  50.6700489  74.2427026  53.0215562  50.4414299  73.6105492
  52.1405197  51.4306155  73.9662238  52.4990542  50.7484326  74.1083523
  40.3342841  54.0960685  69.7115622  39.7869560  53.4261331  69.8296490
  41.1235219  53.7290533  69.7759089  40.3695025  53.9425672  69.7384323
  49.4027249  51.5759517  56.8627250  49.7826214  51.5939147  56.0778365
  48.6619845  52.0213506  56.7418097  49.3496087  51.6441292  56.7290818
  57.0312540  49.8841709  62.4502829  57.0306766  49.7290365  63.3087105
  56.8268720  50.7304696  62.3944214  57.0012317  49.9862329  62.5690768
  39.0929810  53.3081493  66.8661645  38.9151572  52.8558102  67.5916561
  38.8048833  54.1107655  67.0500123  39.0242764  53.3604051  67.0005148
  54.7553392  54.5639210  66.1039036  55.2507057  53.8462206  66.0643056
  53.9453167  54.2610008  65.9893522  54.7097285  54.4136857  66.0812761
  50.2012003  58.4137024  58.2536040  49.3923326  58.0903697  58.2069349
  50.7086912  57.7070246  58.1864289  50.1561670  58.2618340  58.2366334
  40.8302280  55.8409217  63.9783404  39.9647800  55.8294907  63.8666175
  40.9301096  55.6539440  64.8254544  40.7176447  55.8115278  64.0872349
  56.8205210  57.3142898  68.7916164  57.2460282  56.7917320  68.2386589
  56.4562130  57.9123735  68.2704787  56.8291813  57.3253125  68.6325174
  46.4559290  65.6107115  67.5513510  46.7705849  66.4243504  67.5591292
  46.8652704  65.2257334  68.2195669  46.5627388  65.6735818  67.6517601
  53.4083810  61.0277162  65.1217322  53.8794988  61.7417425  65.2907307
  53.7443988  60.4275912  65.6577191  53.5278925  61.0448627  65.2249698
  50.3253305  45.8004633  72.0775417  50.4581210  45.0035626  72.4056392
  50.7098458  46.3271036  72.6573692  50.4009634  45.7604550  72.2118919
  53.3985660  42.7234959  68.6756510  52.5931624  42.6132689  68.9924348
  53.2692395  42.8247415  67.8186376  53.2605793  42.7218629  68.5964550
  56.8551621  48.8880451  69.2696207  56.2714609  49.3889657  68.8573774
  57.1755915  48.3810007  68.6360530  56.8164796  48.8872286  69.1154714
  47.9841752  45.7963808  70.3253310  48.5286165  45.4554935  70.9157652
  48.0378687  46.6549269  70.4674595  48.0730871  45.8719067  70.4335184
  43.7972310  59.5580224  67.1992118  44.4017168  59.5176058  66.5705939
  43.5899623  60.4051376  67.2296174  43.8561208  59.6768226  67.1108235
  53.6116082  61.8246169  68.4154356  54.4314456  61.6809135  68.6770651
  53.3310160  62.4492368  68.9570793  53.6912826  61.8956521  68.5342295
  39.0323593  58.5414841  67.0691041  38.9347871  57.7311113  67.3781098
  39.8152462  58.5206635  66.6837309  39.1339729  58.4181932  67.0577904
  61.8378341  68.0473341  61.0219271  62.5358506  68.2261468  61.5140734
  62.1530673  67.5243680  60.3989660  61.9873678  67.9967113  61.0021281
  60.0105205  63.4165737  65.1040546  59.6808535  63.8676881  64.4344244
  59.3350206  63.3381901  65.6513552  59.8615641  63.4716873  65.0863769
  67.2181612  59.4051260  63.3490156  66.9035053  60.0954739  63.7810579
  66.7008554  59.3496043  62.6475657  67.0946083  59.4986149  63.3087105
  58.4493654  73.3018978  58.2635035  57.8650869  73.8069009  58.6700899
  58.0463749  73.0761365  57.5231627  58.3032958  73.3427226  58.2140060
  62.9070868  69.5484630  56.7403955  63.1466872  69.7562614  55.9279298
  63.2286709  68.7442139  56.8492900  62.9908026  69.4598731  56.6364508
  58.2161159  61.4778026  60.5863493  58.9707127  61.8456343  60.3480543
  58.0388693  61.8517580  61.3542673  58.3015637  61.5876214  60.6648382
  56.5718223  63.8848345  57.2841606  56.3893796  64.1020226  56.4582599
  57.4343836  63.9987358  57.3400221  56.6722813  63.9338243  57.1696093
  62.2517942  60.8874756  60.3190630  62.9804103  60.7090711  59.8728786
  62.3412835  61.7292835  60.5297808  62.3724605  60.9858634  60.2844148
  56.1180250  67.1622518  55.7964079  55.4038427  66.8760697  56.2086512
  56.6024219  67.5019143  56.4370467  56.0839614  67.1704167  55.9519714
  63.2927568  75.6652471  56.1725888  63.7078717  75.3337495  55.4810383
  62.4619498  75.4321374  56.0446024  63.2315577  75.5823727  56.0516735
  65.9860958  71.9163031  55.3587089  65.9041121  71.9865218  56.2242076
  66.6240679  72.4792775  55.1670830  66.0680796  72.0102002  55.4577038
  48.0645661  68.8801606  63.3270951  48.1505912  68.5033474  64.1084481
  48.6921458  68.5062052  62.8490909  48.1702212  68.7687088  63.3716428
  63.0901069  71.9383485  58.3695695  63.9041707  72.2298378  58.2578467
  63.0260210  71.2843348  57.7953988  63.2003808  71.8848680  58.2684533
  59.6011792  70.6307292  57.8342897  59.9856945  70.4114999  58.5859442
  59.3523412  71.4570238  57.9643973  59.6213864  70.7205439  57.9643973
  57.3212229  62.3004229  63.1651677  56.4534655  62.3726829  63.2309287
  57.6087434  63.1026308  63.3539653  57.2351977  62.4298376  63.2026444
  55.2479581  65.7762488  60.6068554  54.9604377  65.4063759  59.8700501
  55.9350050  66.2457344  60.3452259  55.3068479  65.7909458  60.4583629
  58.0833253  69.6415437  62.0535958  58.8055905  69.8056595  61.5939764
  57.6041246  70.3625101  61.9475298  58.1196984  69.7713666  61.9701572
  64.4896039  62.8764612  62.1660259  65.1922392  62.6772361  61.6880217
  64.2240227  62.1040555  62.4729103  64.5542671  62.7327578  62.1405701
  52.8207776  66.5543701  61.4553835  52.9223912  67.3569862  61.7834810
  53.6163663  66.3531037  61.1576915  52.9535682  66.6429600  61.4589190
  66.6356148  57.5145282  65.2956806  66.7539716  57.9721745  64.5624109
  66.4618324  56.7090543  65.0093024  66.6275319  57.4639054  65.1457740
  64.5277091  75.1545285  53.7111501  65.2950076  75.2145410  53.3017352
  64.0808400  74.5825727  53.2267819  64.5750518  75.0781861  53.5789211
  53.0984831  69.1736911  62.6433229  53.4783795  69.5921456  61.9793496
  52.5240195  69.7550367  62.9502072  53.0696155  69.3214770  62.5909969
  63.6033712  59.3696085  66.2375468  62.7327270  59.3434806  66.1908777
  63.8574053  59.1973277  65.4201314  63.5127272  59.3406228  66.1095605
  60.5751691  71.4264051  55.1748611  60.8644216  72.2028934  55.4492185
  60.6623490  70.9152783  55.8763110  60.6305947  71.4655970  55.3191109
  59.6098394  65.9779235  61.0891022  59.8858128  65.2598147  60.6768590
  60.2097063  66.5764155  60.8812128  59.7391659  65.9599606  60.9971783
  63.1108915  63.6492752  59.3637617  63.5652661  63.8203313  60.0885462
  63.5848960  63.0360863  58.9635393  63.2477235  63.5843638  59.4111379
  60.4521935  70.3535287  60.4682625  61.1963980  70.7409563  60.7065574
  60.5982631  69.5092712  60.6323112  60.5832520  70.2865759  60.5276594
  65.3683310  66.8197315  59.4302298  64.8406329  66.9026059  58.7408007
  65.8279018  67.5615186  59.4266942  65.3585161  66.9417977  59.3276993
  57.3616375  65.0899834  54.4543193  57.0129180  65.7419559  54.9174742
  56.8812821  65.0756947  53.7267064  57.2386619  65.1842888  54.4154284
  57.7340284  67.7158365  59.9669237  57.8743245  68.2130829  60.6697879
  58.2322817  67.0144659  60.1083451  57.8281365  67.6860343  60.0920816
  57.7640506  68.5825476  57.2961814  58.3985586  69.1785901  57.2311276
  57.8466117  68.2828933  58.1107684  57.8697057  68.6266384  57.4064901
  59.3419489  64.5139451  57.2707256  59.6635330  64.0342534  56.6166519
  59.6046433  65.3239097  57.0798068  59.4285515  64.5629349  57.1462748
  54.2693494  70.7793316  60.5651360  54.7785724  71.3757824  60.9462666
  54.7427766  70.5119290  59.8827780  54.4136870  70.8279132  60.5205883
  63.1772867  60.3726745  63.0421312  62.5341185  60.2224391  63.6106451
  62.8372274  60.1269090  62.2770417  63.0317944  60.3138867  63.0124327
  56.6284026  67.4149575  63.4324541  55.9096015  67.8313708  63.6997404
  56.9996388  67.9803814  62.8816179  56.5775958  67.5598856  63.3907348
  62.4030600  66.4547575  58.7697920  61.8095440  66.7764571  58.2182487
  62.4405878  65.6088670  58.5619026  62.3204989  66.3771903  58.6580691
  58.3333179  64.9503626  63.4953866  58.8090546  65.3120705  62.8604047
  57.8321779  65.6060093  63.7754009  58.3298538  65.0997814  63.4430607
  60.3759833  67.0944825  56.8627250  60.7558797  67.1124455  56.0778365
  59.6352429  67.5398814  56.7418097  60.3228670  67.1626600  56.7290818
  61.1744587  73.9322332  58.2536040  60.3655909  73.6089005  58.2069349
  61.6819496  73.2255554  58.1864289  61.1294253  73.7803648  58.2366334
  60.3679003  63.3206354  59.5454882  61.1894698  63.4904666  59.3036576
  59.9048654  63.4753615  58.8221179  60.4210166  63.3688087  59.4026526
  36.8582806  -0.1366772  48.3137279  36.8276810   0.7177865  48.4855548
  37.4564155  -0.4371479  48.8723422  36.9419964  -0.0550275  48.4212081
  30.0582491  -1.0491121  53.0690209  29.2020386  -0.8882623  53.1199326
  30.1050145  -1.9199057  53.0895270  29.9381602  -1.1540319  53.0796275
  24.4423631   8.4871597  48.8327441  23.6906530   8.1087135  48.6043486
  24.8909642   8.5190031  48.0846251  24.3973297   8.4357204  48.6884943
  33.3676207   5.2195405  62.6750665  34.0742975   4.7247436  62.8037600
  33.5564143   5.6604486  61.9453323  33.5004113   5.2113755  62.5859711
  29.8948591   8.9096967  44.2612988  29.5599959   9.5873888  43.8257210
  30.4075461   8.5202278  43.6729859  29.9214172   8.9521545  44.1099779
  29.4352882  10.8611235  50.2024099  29.8192261  11.4298134  49.6628875
  29.3712023  10.1360746  49.7229915  29.4826309  10.8386699  50.0517962
  32.9034312   1.0100923  55.7121861  33.4490272   1.6886010  55.7715831
  32.8451188   0.8688384  54.8523442  32.9750226   1.0892925  55.5933921
  26.0208387   8.4989989  51.0990213  26.1218750   7.6890343  51.4087341
  25.4250132   8.4046936  50.4689892  25.9480925   8.3655017  51.0516452
  34.6799381   2.4385530  46.5855589  34.5638907   3.1893216  47.0147727
  35.4755267   2.1809484  46.8351676  34.7803970   2.5120377  46.6859680
  25.8609126  13.4167578  52.5005069  26.5046582  13.8580742  52.8901228
  26.1865382  12.6121005  52.4135328  26.0040955  13.3632773  52.5450547
  19.2173431   4.5210276  50.7242547  18.9823616   3.6877928  50.6174816
  19.3559072   4.8014941  49.9103748  19.2029094   4.4393779  50.5884902
  26.5629706   6.4279553  47.8724931  26.8845547   6.9684761  47.2686239
  27.2101803   5.8576325  48.0047221  26.7055761   6.4238728  47.8031966
  28.6131414  -1.5704452  47.9559318  29.3111579  -1.3916324  48.4480781
  28.9283747  -2.0934112  47.3329707  28.7626751  -1.6210680  47.9361328
  21.2432652   0.2348288  55.8670424  21.1191348   0.8210734  56.5020242
  21.8950936  -0.2591516  56.1682699  21.3206301   0.2487093  56.0056353
  28.8019350   4.8165993  47.9439109  29.2412985   4.2083094  48.3893882
  28.6524012   4.4373367  47.1724574  28.8440815   4.6704464  47.8958277
  26.2690993   3.4110005  55.1457935  26.9139995   2.9182448  54.8268883
  26.5092770   3.5534792  55.9724013  26.4001578   3.3587447  55.2207468
  28.8077084   6.2564911  54.7964827  29.0900327   5.4616317  54.5751583
  29.5363244   6.7345498  54.8169888  28.9566648   6.2099508  54.7667842
  32.4028686   3.1693175  44.8969878  32.3179981   4.0254141  45.0419447
  32.8913069   2.8937499  45.5652038  32.4617583   3.2550496  45.0171960
  33.3347119  -0.2122031  46.3967614  32.8058591   0.0037602  47.0564920
  33.8572139   0.4814107  46.3168583  33.3335572  -0.0778894  46.4823213
  38.7895172   5.3624273  51.7700658  37.9592875   5.5734917  51.9334075
  38.7404425   4.5361328  51.4942942  38.6601908   5.2713879  51.7538023
  25.2246727   3.6841185  45.1975082  24.6403942   4.1891217  45.6040945
  24.8216822   3.4583572  44.4571674  25.0786031   3.7249434  45.1480107
  20.7790756   9.3995947  51.9998753  20.2958334  10.1246436  51.9758337
  21.5914074   9.6972077  52.1108911  20.8281503   9.5498300  52.0126032
  26.8504910   8.1928127  54.6048568  26.3331851   7.8335542  54.0009876
  27.5479301   7.6690302  54.6154634  26.8770491   8.0625815  54.5178826
  30.5068502   8.6422941  60.5664741  30.5951848   8.4549082  61.4142951
  30.9358214   7.9960371  60.1669587  30.5830604   8.5185949  60.6336492
  28.0738962   7.9254101  59.5482403  27.5109796   7.5126711  60.0722064
  28.8359985   7.8507007  59.9675546  28.1033410   7.8531502  59.6875403
  29.6823942  -0.0693162  43.6744002  29.9219945   0.1384821  42.8619345
  30.0039783  -0.8735654  43.7832947  29.7661099  -0.1579061  43.5704555
  23.6334953   9.9152123  52.1519033  24.3355532   9.4004112  52.2091789
  23.5532436  10.2426274  52.9565908  23.7258713   9.8866349  52.2791825
  38.2849131  -1.9905326  55.5651079  37.4477552  -1.9203139  55.7998674
  38.2537361  -1.9880831  54.6925382  38.1567413  -1.9795099  55.4710627
  22.9585728   6.1058474  51.6604641  23.7974628   6.3381407  51.7078403
  22.9897498   5.2362786  51.5911676  23.0867446   6.0115421  51.6569286
  23.5838431   6.5259350  55.9617946  24.1236656   6.3830481  56.6321319
  22.9008378   6.9256100  56.3301973  23.5630585   6.5639021  56.1152368
  33.0079316   2.2050350  51.1562971  33.7636831   2.6381865  51.1951880
  33.1141641   1.5555120  51.7297607  33.1349487   2.1727834  51.2460996
  36.0459487   6.0323628  51.9065374  35.6094719   6.0360370  52.6624345
  35.7122403   6.7129127  51.4744951  35.9322107   6.1336083  51.9546206
  30.6188561   8.0731960  63.2308524  31.4028978   8.1862808  63.5964266
  30.4185156   7.2473097  63.4267210  30.7054586   7.9678680  63.3142910
  18.9875577   2.7459640  56.1152368  18.7213992   1.9298757  56.2743358
  19.0014141   2.7912796  55.2447884  18.9500299   2.6316545  56.0105850
  22.8933324  -2.4555275  42.7304126  22.1791501  -2.7417096  43.1426559
  23.3777292  -2.1158649  43.3710514  22.8592687  -2.4473625  42.8859761
  30.7758954   9.9842062  56.8774980  29.9774200   9.7441563  57.1348848
  31.2244966  10.0356455  57.6242027  30.7233566   9.9564454  57.0259904
  39.1803834   2.7504547  50.7985011  39.8420268   2.1895216  50.6980920
  38.5395246   2.2556578  51.1237702  39.1832701   2.5940956  50.8317351
  30.0680641   6.0474679  43.1065934  30.4831790   5.7159703  42.4150430
  29.2372571   5.8143581  42.9786071  30.0068650   5.9645935  42.9856782
  19.3968990   3.5318420  53.3964112  19.2144563   3.5065306  52.5436404
  20.1318659   4.0017358  53.4353021  19.4783054   3.5979782  53.2762031
  35.4668664   3.7669930  50.5397000  35.7024254   3.9115129  49.7123850
  35.6158228   4.5312338  50.9328513  35.5234468   3.9008984  50.4760604
  37.2959121   2.6071596  48.3766604  37.6267338   3.1399236  47.7706699
  37.8692209   2.6610484  49.0328555  37.4292800   2.6941165  48.3844385
  32.5091010   0.4536499  49.0590184  32.6037865   1.1925793  49.5129809
  31.8849854   0.0253974  49.4924748  32.4300040   0.4997819  49.1898331
  30.7643484   3.6322711  59.7080465  31.3382346   2.9949955  59.8629029
  30.6858288   3.6326794  58.8390122  30.8376719   3.5387823  59.6026876
  19.3639901   0.4111921  53.5463179  19.9413403   0.2748371  54.1855424
  18.6653962  -0.0452295  53.8008763  19.3460922   0.3234187  53.6785469
  32.7614032   2.2985238  42.2927136  32.6794194   2.3687425  43.1582123
  33.3993752   2.8614982  42.1010876  32.8433869   2.3924209  42.3917085
  26.1207203   2.0645976  51.7601662  25.8626447   1.2317711  51.7332962
  26.1755686   2.2903589  50.9194162  26.0906981   1.9743747  51.6321799
  25.0941915  -0.3816261  52.2466557  24.5191506  -0.2224093  52.8830518
  24.7177591  -1.0180852  51.7835007  24.9544727  -0.4518448  52.2721115
  28.7615204  -1.9092912  57.1058935  28.3729636  -2.3338694  56.4511126
  28.0969902  -1.6610762  57.6135962  28.6062131  -1.9354191  57.0846803
  29.8654142   2.3205693  45.3035742  30.6794781   2.6120585  45.1918514
  29.8013283   1.6665555  44.7294035  29.9756881   2.2670887  45.2024580
  36.0863632   5.0031689  59.7165318  35.8502269   4.1719754  59.5977378
  36.7306861   4.9517296  60.3020162  36.1458303   4.8729377  59.7851211
  25.7362050   5.7927210  50.4308054  26.3735997   5.5538958  50.9759848
  26.1617122   5.9964369  49.6961215  25.8938216   5.7878220  50.4025212
  20.4274692   8.0315547  54.3142358  20.4678838   8.3030398  53.4862138
  20.9869216   8.5557455  54.7300146  20.5158038   8.1491302  54.2534246
  26.3764865   1.0129500  44.7682944  26.7610018   0.7937207  45.5199489
  26.1276485   1.8392445  44.8984020  26.3966938   1.1027646  44.8984020
  37.1100053   4.7876137  55.7793612  36.8045870   5.5204194  56.1406928
  36.3906268   4.3814067  55.4986398  36.9587395   4.8357870  55.7906749
  28.1183522   6.2699633  52.1101841  28.1922530   6.1074805  52.9643690
  28.9353028   6.4589822  51.8662322  28.2499881   6.2736375  52.1999866
  42.8101845   1.4269138  55.1061957  42.7426345   1.4465097  54.2364543
  42.7957507   2.2699465  55.3317627  42.7980601   1.5542873  55.0114434
  21.8789279   6.6157495  49.1396284  21.0527396   6.8619233  49.0130563
  21.9401270   6.5369576  50.0058342  21.7663446   6.6402444  49.2485229
  26.6588108   9.2334376  46.8415314  26.9486406   8.8423357  46.1174541
  27.3891589   9.4151081  47.2820589  26.8094992   9.2028189  46.7998121
  40.5960462   0.2013524  53.3808551  41.1468384  -0.4318407  53.6205643
  40.5804577   0.7328917  54.0724055  40.6745658   0.1862472  53.5187409
  27.2482853   4.0352122  57.9268444  26.7494547   4.7467889  58.0053333
  28.0583077   4.3552788  57.8886607  27.2938960   4.1878970  57.9325013
  24.5994023  11.2101758  49.9075464  24.3794319  10.9199113  50.7002131
  24.3788545  10.5516713  49.3793376  24.5341617  11.0701466  49.9464372
  23.5110970   3.2975075  52.1731165  23.2224219   2.6712546  52.7076893
  24.3794319   3.2395362  52.2395846  23.5971222   3.1962619  52.2622120
  34.2988868  -1.5590142  52.4913147  33.9553634  -2.2799807  52.8420397
  34.3981911  -1.7676291  51.6491505  34.2630911  -1.6965939  52.4184827
  26.7661979  12.5831148  48.6906156  27.4186037  12.0507590  48.9197182
  26.0687588  12.2299800  49.0774030  26.7592697  12.4520671  48.7818324
  23.7143244   4.9370326  48.0973530  24.4689212   5.3183365  48.3108993
  23.1213857   5.3881469  48.5520227  23.7379957   5.0599153  48.1956409
  34.7601897   4.9035562  48.0337135  35.3259930   5.5628772  47.9495678
  34.1129801   5.2485260  48.5053537  34.7480654   5.0517503  48.0909892
  25.0341470   6.1078887  53.4713646  24.5122224   6.2479179  54.1565510
  25.4215491   5.3489551  53.6615763  25.0145171   6.0164411  53.6014722
  31.2308475   7.8474346  47.4574215  30.9895151   7.1142207  47.0501280
  31.4109808   8.3961203  46.8040548  31.2216099   7.8196737  47.3004437
  26.4607796   3.1382906  48.8695137  26.2650579   3.7457641  48.2755440
  26.6842142   2.4450850  48.3886811  26.4642437   3.1260432  48.7111218
  24.8586326   0.0237644  48.9876005  25.5808978   0.1878802  48.5279811
  24.3794319   0.7447309  48.8815345  24.8950057   0.1535874  48.9041619
  32.8179834  -3.6398557  54.3672690  31.9790934  -3.6137278  54.1310953
  32.8884201  -2.9927822  54.9478037  32.7048227  -3.5402431  54.4181807
  22.5093943   2.4295716  58.0930145  23.0215040   2.7079970  57.4438905
  22.2230285   3.1685010  58.4592958  22.5428806   2.5798070  58.0520023
  36.6937358   1.5669430  51.6533932  36.6071332   1.7224856  52.5068711
  36.2387837   2.2107505  51.2793337  36.6140614   1.6845185  51.7241039
  30.5663174  -1.1119823  50.2759491  30.3197888  -1.1924072  51.1096280
  30.8948297  -1.8966356  50.0822019  30.5784417  -1.2393558  50.3707014
  34.4611222   5.5963536  54.0646273  34.3225582   6.2944582  54.5695015
  33.6811220   5.4412192  53.7082454  34.3254449   5.6763703  54.0872547
  32.7989308   1.8959911  60.3168654  32.7937346   1.0239728  60.3211081
  33.5050301   2.0948081  59.8438110  32.9034312   1.7963786  60.2475690
  26.5260201   1.6236895  59.6882474  26.6703577   2.2038103  59.0525584
  26.8735849   2.0013192  60.3932329  26.5987662   1.7657599  59.6981469
  28.6980118   0.8227064  57.4707606  27.9503432   1.0158078  57.0655884
  28.8521643  -0.0027717  57.2331727  28.6102546   0.7292175  57.3753012
  25.5987956   9.8139667  56.5543501  25.7477520   9.2542583  55.9016906
  26.3787958   9.8931669  56.9376020  25.7362049   9.7425233  56.5140450
  35.9564595   4.9541790  44.8262772  35.5771404   4.1678928  44.8192061
  35.2930841   5.5028647  44.6834416  35.8023070   4.9186614  44.8043569
  28.1241256   9.9854310  57.8327992  28.0484928   9.3163121  58.3878780
  28.0531116  10.6872098  58.3468658  28.1021863   9.9899217  57.9904840
  28.7811503   8.5055309  48.6651598  29.5461394   8.2364953  48.3434262
  28.6789593   8.0205319  49.3821661  28.8792999   8.3944873  48.7231426
  26.8164273  -3.2920282  55.2044834  26.0260348  -3.4728822  55.5262170
  27.2124896  -4.0693329  55.1875128  26.7581149  -3.4332821  55.2497382
  31.3030164   5.5367493  40.6451547  32.0703149   5.5967618  40.2357399
  30.8561473   4.9647934  40.1607866  31.3503591   5.4604068  40.5129258
  32.2007959   4.3422148  52.9304280  31.5252961   4.1107381  53.4317667
  32.2100336   3.7343331  52.3046385  32.1026464   4.2181074  52.9120432
  29.3302103  -0.8160023  59.6868333  29.2661245   0.0449934  59.5588469
  29.4699291  -1.1328029  58.8863884  29.3417573  -0.7359856  59.5496546
  34.2024694   7.1987281  45.1614458  34.2844531   8.0054267  44.8375909
  34.6874436   7.2183240  45.8855231  34.2861852   7.3207943  45.2201356
  28.0121197   1.8772117  53.8284536  27.5883446   2.0776616  53.0923554
  27.8366052   1.0300965  53.9408835  27.9232078   1.7820898  53.7358226
  27.5132891  13.3922630  56.2905993  28.0028821  12.6933419  56.1081658
  26.9417123  13.0946500  56.8782050  27.5017421  13.2448853  56.3507034
  23.3003642   2.3724168  49.2612508  23.4568261   2.3070971  50.1168500
  23.6404235   3.1472721  49.0491188  23.3736877   2.4773366  49.3567102
  29.8382787   1.7482052  48.1305871  30.3798332   1.2452433  48.5944492
  30.1529346   1.6947246  47.3195357  29.9647184   1.6661473  48.0789683
  33.7099894   5.9584699  65.2432784  34.5234760   5.6869848  65.4037916
  33.5494861   5.6592239  64.4392979  33.8069843   5.8739625  65.1478189
  28.0069237   7.1399403  45.4145899  28.0762057   6.2813942  45.5538900
  28.7857692   7.3571284  45.0864924  28.1322087   7.0452267  45.3863057
  30.9872056  -3.3581644  58.1828172  31.2014026  -3.9970730  57.6291526
  30.3705955  -2.9135820  57.7536034  30.9277386  -3.3871500  58.0378603
  32.3976724   9.5637105  49.6282393  32.0056516   9.2603820  48.9105259
  32.5529796  10.4006194  49.4387347  32.3630314   9.6420941  49.4938890
  19.8737904  -0.4440881  49.5773275  20.2536869  -0.0256336  48.9133543
  19.2993269   0.1372574  49.8842119  19.8449229  -0.2963023  49.5250016
  33.1511144  -1.7492579  59.1211479  32.3387826  -2.0566688  59.2024652
  33.6101079  -2.2293578  59.6854191  33.0991529  -1.8656086  59.2166073
  32.5616399   6.1287093  49.5688423  32.2031054   6.3001736  50.3452456
  32.0755110   6.5900299  49.0116422  32.4375096   6.2226064  49.6013692
  27.3504764   1.8086259  42.1088658  27.6397289   2.5851141  42.3832232
  27.4376563   1.2974990  42.8103157  27.4059021   1.8478177  42.2531155
  33.7221138   7.0190989  60.5155624  34.3600859   6.5251185  60.1818080
  33.0795230   6.9468390  59.9307851  33.7215365   6.9349998  60.3797979
  35.4478138  -1.1319865  55.0821540  35.0205746  -1.2193516  54.3269639
  34.8104191  -1.0242089  55.6676384  35.2907746  -1.1287205  55.0566981
  33.7775395   7.7110798  57.1560981  34.5667773   7.3599862  57.2763063
  33.9518993   8.5247186  56.8937615  33.9195677   7.7796655  57.1348849
  23.5168705   1.1219523  54.2088770  22.6756712   1.0223398  54.4167664
  23.7258713   1.8915004  54.5603090  23.4233398   1.2211567  54.2916085
  20.9944272  -1.2560940  52.0373520  20.6000970  -1.1817928  51.2623630
  20.4384389  -0.8702993  52.5881882  20.8547085  -1.1879165  52.0041180
  27.3285370  -0.9499077  53.4586367  27.0248508  -1.5043089  54.0596775
  26.6264791  -0.7706867  52.9714401  27.1801580  -1.0054295  53.4756073
  26.3851467  -3.6398558  48.0231069  26.6611202  -4.3579645  47.6108637
  26.9850137  -3.0413638  47.8152175  26.5144732  -3.6578187  47.9311830
  25.3903721   6.2650643  58.1658465  25.2824076   6.2752705  59.0320523
  25.5999503   7.0905424  57.9763419  25.4053832   6.3891718  58.2662557
  23.4077513   3.5163286  55.6280403  22.8165446   4.1572784  55.5983418
  24.1698537   3.9400903  55.6011702  23.4325774   3.6739124  55.6195550
  39.5267935   3.3469055  56.6257681  39.5851058   3.7955704  57.3717657
  38.8934402   3.7567868  56.1887761  39.4419230   3.4742790  56.6710229
  33.1667029   8.9672597  53.0612427  32.9686718   9.4563412  52.3668638
  32.5454740   9.1713839  53.6396560  33.0454594   9.0689136  53.0435650
  27.2275008   0.7357494  47.4022671  27.9717053   1.1231770  47.6405621
  27.3735704  -0.1085081  47.5663159  27.3585593   0.6687967  47.4616641
  30.2152884  -3.6917033  53.3016591  29.7412838  -4.2175271  53.8121902
  30.5871019  -4.2387560  52.7331452  30.2002773  -3.8501036  53.2931738
  36.4789614   1.3685343  54.7123371  36.2387837   0.5291758  54.7165798
  36.9581621   1.4485510  55.4364145  36.5141798   1.2566743  54.8198174
  32.1436383  -2.7980478  46.3642345  31.6159402  -2.7151734  45.6748053
  32.6032091  -2.0562607  46.3606989  32.1338234  -2.6759816  46.2617040
  38.4794801  -1.8513200  52.6652630  38.2404571  -1.8917366  51.8273415
  38.6428702  -1.0042048  52.7918351  38.4685105  -1.7321115  52.5606112
  35.0840831   2.5336750  58.5957675  35.8075030   2.0809276  58.4168695
  34.8190794   2.8141415  57.8130003  35.1522105   2.5087718  58.4536391
  23.9527700  -2.8703077  55.3310555  23.3280770  -2.8584685  54.7236507
  23.6173295  -2.3942902  55.9801795  23.8113192  -2.7984560  55.3367123
  20.6653375   5.1897383  56.7714319  20.1353300   4.4989822  56.8209294
  20.9378469   5.1807569  55.9427027  20.6278098   5.0864515  56.6561735
  31.6973466   5.7723086  45.4952002  32.4207665   6.2381199  45.3516575
  31.2574057   5.8396695  44.7449599  31.7389158   5.8506922  45.3636783
  30.8659621   2.6320628  56.7452691  30.2516614   2.0878678  57.0401326
  31.3826906   2.1184864  56.2658507  30.8515283   2.4757037  56.7176919
  30.1055918   3.7024898  54.4796989  29.6783526   3.0774616  54.0462425
  30.0980862   3.4199820  55.3055996  30.0415059   3.5677678  54.5376817
  15.9449218   1.8625147  54.1282667  15.8392667   1.8171992  53.2634751
  15.1949438   2.2078928  54.4096952  15.8184820   1.9066055  54.0419997
  26.1357313  -0.1775020  56.3719167  25.3049243  -0.0101202  56.1654415
  26.0808831  -0.5539069  57.1568052  26.0046728  -0.2085288  56.4567695
  24.5093357  -1.9019428  46.9009284  24.6496318  -1.4046964  47.6037926
  25.0075890  -2.6033134  47.0423498  24.6034438  -1.9317449  47.0260863
  24.5393580  -1.0352317  44.2301861  25.1738659  -0.4391892  44.1651323
  24.6219190  -1.3348859  45.0447731  24.6450131  -0.9911409  44.3404948
  37.5176145   1.4963160  57.0988225  38.1093986   2.1360411  57.1306423
  37.9535140   0.7986197  57.3880292  37.6694577   1.4881511  57.1469058
  26.1172562  -5.1038342  44.2047303  26.4388403  -5.5835259  43.5506565
  26.3799506  -4.2938696  44.0138115  26.2038588  -5.0548444  44.0802795
  29.3469535   5.9180533  57.7246119  28.8394626   6.4716380  58.1686750
  29.0496181   5.9788823  56.9064894  29.2274420   6.0086844  57.6694576
  21.0446567   1.1615524  47.4991407  21.5538797   1.7580031  47.8802713
  21.5180840   0.8941497  46.8167827  21.1889943   1.2101339  47.4545930
  31.9577315   9.8343790  45.6550063  31.2406625   9.6604653  45.1897300
  32.6084053   9.5996363  45.1225549  31.9479166   9.7739583  45.5079281
  34.5425287  -1.2891621  49.3991368  33.8716477  -0.7461919  49.2704433
  35.2365037  -0.8196766  49.1573063  34.5454154  -1.1393350  49.3446895
  28.5912020  10.8505091  54.6303126  28.3677675  10.0923920  54.9987152
  28.1021864  10.8803112  53.9083566  28.4855469  10.7427316  54.5779867
  23.4037099  -2.2028218  50.3664587  22.6849088  -1.7864085  50.6337451
  23.7749461  -1.6373979  49.8156226  23.3529031  -2.0578936  50.3247394
  32.7036680  -1.5700369  56.2566583  32.6834607  -1.7517074  57.1101362
  32.7515881  -0.6988350  56.2326167  32.7071321  -1.4683831  56.3789878
  30.6483010   5.0186823  62.1815060  30.6078865   4.3736500  61.5960216
  31.4606328   4.9623441  62.4940472  30.7626163   4.9145790  62.1412009
  27.2390477  11.0705549  52.0840211  26.8250876  10.4079679  51.6944052
  27.9237852  11.2183408  51.5635905  27.2788849  10.9946207  51.9496708
  30.6055772  10.2295634  52.8363827  30.2072055  10.3397905  52.0684647
  29.9906991  10.4377701  53.4190387  30.4554661  10.2769202  52.8095127
  29.1783674  -3.1630218  45.7037967  28.5848513  -2.8413221  45.1522534
  29.2158951  -4.0089122  45.4959073  29.0958063  -3.2405890  45.5920738
  32.0541490  -3.2050713  49.1339717  31.8255183  -3.1818012  48.2918075
  32.3139566  -4.0293246  49.2534728  32.0587678  -3.3234633  49.0264915
  25.1086253  -4.6674167  50.4293913  25.5843619  -4.3057087  49.7944094
  24.6074852  -4.0117699  50.7094056  25.1051612  -4.5179978  50.3770654
  38.3397614   4.8047601  46.2206918  38.7231220   5.5538957  46.4505015
  37.5441728   5.0513421  45.9618907  38.2791396   4.9517295  46.2164491
  27.1512906  -2.5232967  43.7967297  27.5311871  -2.5053338  43.0118412
  26.4105502  -2.0778978  43.6758144  27.0981744  -2.4551193  43.6630865
  32.5039048   0.4646726  53.0379082  32.9992714  -0.2530279  52.9983103
  31.6938824   0.1617523  52.9233569  32.4582942   0.3144372  53.0152808
  27.9497660   4.3144539  45.1876087  27.1408983   3.9911213  45.1409396
  28.4572569   3.6077761  45.1204335  27.9047327   4.1625855  45.1706381
  18.5787937   1.7416732  50.9123451  17.7133457   1.7302423  50.8006222
  18.6786753   1.5546955  51.7594590  18.4662104   1.7122793  51.0212396
  34.5690867   3.2150413  55.7256211  34.9945939   2.6924835  55.1726636
  34.2047787   3.8131251  55.2044834  34.5777470   3.2260640  55.5665221
  24.2044947  11.5114631  54.4853557  24.5191506  12.3251019  54.4931338
  24.6138360  11.1264849  55.1535716  24.3113045  11.5743333  54.5857648
  31.1569467   6.9284678  52.0557369  31.6280645   7.6424940  52.2247354
  31.4929645   6.3283428  52.5917238  31.2764582   6.9456142  52.1589744
  33.2446451   8.5385991  64.2349441  33.3543417   7.7494552  64.5906188
  33.5737348   8.4491927  63.4323779  33.3098857   8.4091844  64.1691831
  31.7943413   6.7202612  58.8185061  31.2464359   6.0960495  58.5505127
  32.2556442   6.9096884  58.1029141  31.7810622   6.6561662  58.6735492
  21.5457967   5.4587739  54.1332165  22.1502825   5.4183573  53.5045986
  21.3385280   6.3058891  54.1636221  21.6046864   5.5775742  54.0448282
  31.3601739   7.7253684  55.3494402  32.1800113   7.5816650  55.6110698
  31.0795817   8.3499883  55.8910840  31.4398483   7.7964036  55.4682342
  16.7809249   4.4422357  54.0031088  16.6833527   3.6318628  54.3121145
  17.5638119   4.4214150  53.6177356  16.8825386   4.3189447  53.9917951
  41.0315075  14.4694187  53.0690209  40.1752970  14.6302685  53.1199326
  41.0782728  13.5986251  53.0895270  40.9114186  14.3644989  53.0796275
  44.3408791  20.7380713  62.6750665  45.0475558  20.2432743  62.8037600
  44.5296726  21.1789794  61.9453323  44.4736697  20.7299063  62.5859711
  43.8766896  16.5286231  55.7121861  44.4222856  17.2071318  55.7715831
  43.8183772  16.3873692  54.8523442  43.9482810  16.6078233  55.5933921
  36.8341710  28.9352886  52.5005069  37.4779165  29.3766050  52.8901228
  37.1597966  28.1306313  52.4135328  36.9773539  28.8818081  52.5450547
  30.1906015  20.0395584  50.7242547  29.9556199  19.2063236  50.6174816
  30.3291655  20.3200249  49.9103748  30.1761677  19.9579087  50.5884902
  32.4896102  12.2081314  53.6226855  31.8701134  11.6173962  53.4536869
  32.3879966  12.7992750  52.9891178  32.3833778  12.2085397  53.5031844
  39.5863998  13.9480856  47.9559318  40.2844162  14.1268984  48.4480781
  39.9016330  13.4251195  47.3329707  39.7359335  13.8974628  47.9361328
  32.2165235  15.7533596  55.8670424  32.0923932  16.3396042  56.5020242
  32.8683520  15.2593792  56.1682699  32.2938884  15.7672400  56.0056353
  39.7751933  20.3351301  47.9439109  40.2145569  19.7268402  48.3893882
  39.6256596  19.9558674  47.1724574  39.8173399  20.1889772  47.8958277
  37.2423576  18.9295313  55.1457935  37.8872579  18.4367756  54.8268883
  37.4825353  19.0720100  55.9724013  37.3734161  18.8772755  55.2207468
  39.7809668  21.7750219  54.7964827  40.0632910  20.9801625  54.5751583
  40.5095828  22.2530806  54.8169888  39.9299231  21.7284816  54.7667842
  37.7590861   9.3173253  52.0380592  37.4294191   9.7684396  51.3684291
  37.0835863   9.2389416  52.5853599  37.6101298   9.3724388  52.0203816
  44.9667269   5.3058776  50.2830203  44.6520710   5.9962254  50.7150625
  44.4494211   5.2503558  49.5815704  44.8431740   5.3993664  50.2427152
  49.7627756  20.8809581  51.7700658  48.9325459  21.0920225  51.9334075
  49.7137008  20.0546636  51.4942942  49.6334491  20.7899187  51.7538023
  36.1979311  19.2026493  45.1975082  35.6136526  19.7076525  45.6040945
  35.7949406  18.9768880  44.4571674  36.0518615  19.2434742  45.1480107
  31.7523339  24.9181255  51.9998753  31.2690918  25.6431744  51.9758337
  32.5646658  25.2157385  52.1108911  31.8014087  25.0683608  52.0126032
  37.8237493  23.7113435  54.6048568  37.3064435  23.3520850  54.0009876
  38.5211885  23.1875610  54.6154634  37.8503075  23.5811123  54.5178826
  41.4801085  24.1608249  60.5664741  41.5684431  23.9734390  61.4142951
  41.9090798  23.5145679  60.1669587  41.5563188  24.0371257  60.6336492
  39.0471545  23.4439409  59.5482403  38.4842380  23.0312019  60.0722064
  39.8092569  23.3692315  59.9675546  39.0765994  23.3716810  59.6875403
  40.6556525  15.4492145  43.6744002  40.8952529  15.6570129  42.8619345
  40.9772366  14.6449654  43.7832947  40.7393683  15.3606247  43.5704555
  35.9646815   7.3785541  47.5203540  36.7192783   7.7463858  47.2820590
  35.7874350   7.7525096  48.2882720  36.0501294   7.4883729  47.5988429
  34.6067537  25.4337430  52.1519033  35.3088116  24.9189419  52.2091789
  34.5265020  25.7611582  52.9565908  34.6991297  25.4051657  52.2791825
  49.2581714  13.5279982  55.5651079  48.4210135  13.5982169  55.7998674
  49.2269945  13.5304477  54.6925382  49.1299997  13.5390209  55.4710627
  35.6546443  15.6713017  61.2799448  35.8266947  15.5618912  62.1284729
  36.1915801  16.3167423  61.0430640  35.7591447  15.7505019  61.3704545
  34.3203880   9.7855860  44.2181653  34.1379453  10.0027741  43.3922646
  35.1829493   9.8994873  44.2740267  34.4208470   9.8345758  44.1036140
  33.9318312  21.6243782  51.6604641  34.7707211  21.8566715  51.7078403
  33.9630081  20.7548094  51.5911676  34.0600030  21.5300729  51.6569286
  34.5571015  22.0444658  55.9617946  35.0969240  21.9015789  56.6321319
  33.8740961  22.4441408  56.3301973  34.5363169  22.0824329  56.1152368
  40.0003599   6.7882271  47.2530677  40.7289760   6.6098226  46.8068833
  40.0898492   7.6300351  47.4637855  40.1210261   6.8866149  47.2184195
  43.9811900  17.7235658  51.1562971  44.7369415  18.1567173  51.1951880
  44.0874224  17.0740428  51.7297607  44.1082071  17.6913142  51.2460996
  47.0192071  21.5508936  51.9065374  46.5827303  21.5545678  52.6624345
  46.6854987  22.2314434  51.4744951  46.9054691  21.6521391  51.9546206
  41.5921145  23.5917268  63.2308524  42.3761561  23.7048116  63.5964266
  41.3917739  22.7658405  63.4267210  41.6787170  23.4863988  63.3142910
  29.9608160  18.2644948  56.1152368  29.6946575  17.4484065  56.2743358
  29.9746724  18.3098104  55.2447884  29.9232882  18.1501853  56.0105850
  46.9389554   8.5922763  54.1494802  47.5815462   8.6620868  54.7356717
  47.1912575   7.9251986  53.6474344  47.0711686   8.5049112  54.1622081
  33.8665907  13.0630033  42.7304126  33.1524084  12.7768212  43.1426559
  34.3509876  13.4026659  43.3710514  33.8325270  13.0711682  42.8859761
  34.7106766  11.8023327  58.7619376  34.0178563  11.3320306  59.0080107
  35.3267094  11.5761631  59.3361083  34.6991296  11.6990459  58.8828528
  41.7491538  25.5027370  56.8774980  40.9506784  25.2626870  57.1348848
  42.1977550  25.5541763  57.6242027  41.6966149  25.4749762  57.0259904
  50.1536417  18.2689855  50.7985011  50.8152851  17.7080524  50.6980920
  49.5127829  17.7741886  51.1237702  50.1565285  18.1126264  50.8317351
  30.3701574  19.0503728  53.3964112  30.1877147  19.0250614  52.5436404
  31.1051243  19.5202666  53.4353021  30.4515638  19.1165090  53.2762031
  46.4401248  19.2855238  50.5397000  46.6756837  19.4300437  49.7123850
  46.5890812  20.0497646  50.9328513  46.4967051  19.4194292  50.4760604
  33.4347325  15.7688731  59.9046221  34.1587298  15.7541761  60.3911116
  33.5363462  16.4784086  59.4068189  33.5565535  15.8713434  59.9025008
  40.8092275  19.2487815  64.7695168  40.0165256  19.5631327  64.9547788
  40.9241202  19.4639284  63.9315953  40.7087685  19.3271652  64.6733503
  43.4823594  15.9721806  49.0590184  43.5770448  16.7111101  49.5129809
  42.8582437  15.5439282  49.4924748  43.4032624  16.0183127  49.1898331
  41.7376068  19.1508019  59.7080465  42.3114929  18.5135263  59.8629029
  41.6590871  19.1512101  58.8390122  41.8109303  19.0573130  59.6026876
  30.3372484  15.9297229  53.5463179  30.9145987  15.7933679  54.1855424
  29.6386546  15.4733013  53.8008763  30.3193506  15.8419495  53.6785469
  37.0939786  17.5831284  51.7601662  36.8359031  16.7503019  51.7332962
  37.1488269  17.8088897  50.9194162  37.0639564  17.4929055  51.6321799
  36.0674498  15.1369047  52.2466557  35.4924090  15.2961215  52.8830518
  35.6910175  14.5004456  51.7835007  35.9277311  15.0666860  52.2721115
  39.7347787  13.6092396  57.1058935  39.3462220  13.1846614  56.4511126
  39.0702485  13.8574546  57.6135962  39.5794715  13.5831117  57.0846803
  49.3771056  13.3667401  49.8806765  49.1207621  12.5547342  49.6904648
  50.2200370  13.3744968  49.6536953  49.4637082  13.2479398  49.8191582
  25.8131317  14.7809121  50.2610997  25.8991569  14.4040990  51.0424527
  26.4407115  14.4069567  49.7830956  25.9187868  14.6694604  50.3056475
  43.5574149   7.3067025  54.6182919  43.9384660   6.6245196  55.0050794
  42.7537433   7.0176627  54.4358584  43.4950610   7.1634073  54.6486975
  40.8386725  17.8391001  45.3035742  41.6527364  18.1305893  45.1918514
  40.7745867  17.1850863  44.7294035  40.9489464  17.7856195  45.2024580
  47.0596215  20.5216997  59.7165318  46.8234853  19.6905061  59.5977378
  47.7039444  20.4702604  60.3020162  47.1190886  20.3914685  59.7851211
  36.7094634  21.3112518  50.4308054  37.3468581  21.0724265  50.9759848
  37.1349705  21.5149677  49.6961215  36.8670800  21.3063528  50.4025212
  31.4007276  23.5500854  54.3142358  31.4411421  23.8215706  53.4862138
  31.9601800  24.0742763  54.7300146  31.4890622  23.6676610  54.2534246
  37.3497449  16.5314808  44.7682944  37.7342601  16.3122514  45.5199489
  37.1009069  17.3577753  44.8984020  37.3699521  16.6212954  44.8984020
  37.5165989   9.8121223  64.4845528  37.2019430  10.5820786  64.2215091
  37.1955922   9.2491479  63.8997755  37.4224908   9.8431492  64.3586878
  48.0832636  20.3061445  55.7793612  47.7778453  21.0389502  56.1406928
  47.3638852  19.8999375  55.4986398  47.9319978  20.3543178  55.7906749
  39.0916106  21.7884941  52.1101841  39.1655114  21.6260112  52.9643690
  39.9085612  21.9775130  51.8662322  39.2232464  21.7921683  52.1999866
  53.7834428  16.9454446  55.1061957  53.7158929  16.9650405  54.2364543
  53.7690091  17.7884773  55.3317627  53.7713185  17.0728181  55.0114434
  32.8521862  22.1342803  49.1396284  32.0259980  22.3804541  49.0130563
  32.9133853  22.0554884  50.0058342  32.7396029  22.1587752  49.2485229
  35.0697886   8.2011744  50.0991724  34.2020311   8.2734344  50.1649333
  35.3573090   9.0033823  50.2879699  34.9837634   8.3305891  50.1366491
  44.1930775   8.3489604  58.4303046  44.9384367   8.1599414  58.0166471
  43.7768079   8.8747842  57.8716902  44.2415749   8.3991749  58.2867619
  51.5693046  15.7198832  53.3808551  52.1200967  15.0866901  53.6205643
  51.5537161  16.2514225  54.0724055  51.6478242  15.7047780  53.5187409
  38.2215436  19.5537430  57.9268444  37.7227130  20.2653197  58.0053333
  39.0315661  19.8738096  57.8886607  38.2671543  19.7064278  57.9325013
  34.4843554  18.8160383  52.1731165  34.1956803  18.1897854  52.7076893
  35.3526902  18.7580670  52.2395846  34.5703806  18.7147927  52.2622120
  45.2721452  13.9595166  52.4913147  44.9286218  13.2385501  52.8420397
  45.3714494  13.7509017  51.6491505  45.2363495  13.8219369  52.4184827
  45.7334481  20.4220870  48.0337135  46.2992514  21.0814080  47.9495678
  45.0862384  20.7670568  48.5053537  45.7213237  20.5702811  48.0909892
  37.1482494  12.4118474  63.2230743  36.3382270  12.7176254  63.1120585
  37.6257181  13.1324056  63.3383327  37.0985973  12.5633075  63.2237814
  36.0074054  21.6264195  53.4713646  35.4854808  21.7664487  54.1565510
  36.3948074  20.8674859  53.6615763  35.9877755  21.5349719  53.6014722
  32.9965238  11.6770004  47.5408600  32.7090034  11.3071274  46.8040548
  33.6835706  12.1464859  47.2792305  33.0554135  11.6916973  47.3923676
  37.4340380  18.6568214  48.8695137  37.2383162  19.2642949  48.2755440
  37.6574725  17.9636158  48.3886811  37.4375021  18.6445740  48.7111218
  35.8318910  15.5422952  48.9876005  36.5541562  15.7064110  48.5279811
  35.3526902  16.2632617  48.8815345  35.8682640  15.6721181  48.9041619
  43.7912417  11.8786751  54.3672690  42.9523518  11.9048030  54.1310953
  43.8616785  12.5257486  54.9478037  43.6780811  11.9782877  54.4181807
  33.4826526  17.9481024  58.0930145  33.9947623  18.2265278  57.4438905
  33.1962869  18.6870318  58.4592958  33.5161389  18.0983378  58.0520023
  42.2381696   8.7772128  49.1000306  42.9408048   8.5779876  48.6220264
  41.9725884   8.0048070  49.4069150  42.3028328   8.6335094  49.0745748
  47.6669941  17.0854737  51.6533932  47.5803916  17.2410164  52.5068711
  47.2120421  17.7292813  51.2793337  47.5873198  17.2030493  51.7241039
  30.5693433  12.4551216  48.3893882  30.6709569  13.2577378  48.7174857
  31.3649319  12.2538552  48.0916962  30.7021338  12.5437115  48.3929237
  37.0010252  10.0407413  58.1531187  36.8093449  10.0562547  59.0030610
  37.8508848  10.2371087  58.1297842  37.0985974  10.0721764  58.2754481
  31.3857165  12.5698394  56.1315003  31.2442657  11.7182335  56.2559511
  31.6697728  12.6127055  55.3077209  31.4065011  12.4498144  56.0282627
  41.5395757  14.4065485  50.2759491  41.2930471  14.3261235  51.1096280
  41.8680880  13.6218952  50.0822019  41.5517001  14.2791750  50.3707014
  45.4343806  21.1148844  54.0646273  45.2958165  21.8129890  54.5695015
  44.6543804  20.9597500  53.7082454  45.2987033  21.1949011  54.0872547
  43.7721891  17.4145219  60.3168654  43.7669930  16.5425036  60.3211081
  44.4782885  17.6133388  59.8438110  43.8766895  17.3149093  60.2475690
  37.4992784  17.1422203  59.6882474  37.6436160  17.7223411  59.0525584
  37.8468433  17.5198500  60.3932329  37.5720246  17.2842907  59.6981469
  39.6712702  16.3412372  57.4707606  38.9236016  16.5343386  57.0655884
  39.8254227  15.5157591  57.2331727  39.5835129  16.2477483  57.3753012
  36.5720539  25.3324975  56.5543501  36.7210103  24.7727891  55.9016906
  37.3520541  25.4116977  56.9376020  36.7094633  25.2610540  56.5140450
  39.0973840  25.5039618  57.8327992  39.0217511  24.8348428  58.3878780
  39.0263699  26.2057406  58.3468658  39.0754447  25.5084525  57.9904840
  39.9114479  10.2362922  58.3603010  40.3687093  10.9686897  58.4875802
  39.9870808   9.8129388  59.1190266  39.9905449  10.2820160  58.4904086
  32.1547470  10.4828742  59.4492453  31.6189659   9.8709100  59.7653221
  32.2165235  11.0576878  60.1026120  32.0843103  10.4775670  59.5927880
  44.3841805   3.4152797  52.2296853  44.5025373   3.8729261  51.4964155
  44.2103980   2.6098059  51.9433070  44.3760976   3.3646570  52.0797786
  37.7896857  12.2265026  55.2044834  36.9992931  12.0456486  55.5262170
  38.1857480  11.4491979  55.1875128  37.7313733  12.0852487  55.2497382
  43.1740543  19.8607456  52.9304280  42.4985545  19.6292689  53.4317667
  43.1832919  19.2528639  52.3046385  43.0759048  19.7366382  52.9120432
  40.3034687  14.7025285  59.6868333  40.2393828  15.5635242  59.5588469
  40.4431875  14.3857279  58.8863884  40.3150157  14.7825452  59.5496546
  38.9853781  17.3957425  53.8284536  38.5616030  17.5961924  53.0923554
  38.8098636  16.5486273  53.9408835  38.8964661  17.3006206  53.7358226
  38.4865474  28.9107938  56.2905993  38.9761405  28.2118727  56.1081658
  37.9149707  28.6131808  56.8782050  38.4750004  28.7634161  56.3507034
  34.2736226  17.8909476  49.2612508  34.4300845  17.8256279  50.1168500
  34.6136819  18.6658029  49.0491188  34.3469461  17.9958674  49.3567102
  40.8115370  17.2667360  48.1305871  41.3530916  16.7637741  48.5944492
  41.1261929  17.2132554  47.3195357  40.9379768  17.1846781  48.0789683
  44.6832478  21.4770007  65.2432784  45.4967343  21.2055156  65.4037916
  44.5227444  21.1777547  64.4392979  44.7802426  21.3924933  65.1478189
  41.9604640  12.1603664  58.1828172  42.1746609  11.5214578  57.6291526
  41.3438539  12.6049488  57.7536034  41.9009969  12.1313808  58.0378603
  30.8470487  15.0744427  49.5773275  31.2269452  15.4928971  48.9133543
  30.2725852  15.6557882  49.8842119  30.8181812  15.2222285  49.5250016
  43.5348983  21.6472401  49.5688423  43.1763637  21.8187044  50.3452456
  43.0487693  22.1085607  49.0116422  43.4107679  21.7411372  49.6013692
  41.3519368   5.2703600  53.1715515  40.4812926   5.2442321  53.1248824
  41.6059710   5.0980792  52.3541360  41.2612929   5.2413744  53.0435651
  38.3237348  17.3271567  42.1088658  38.6129873  18.1036449  42.3832232
  38.4109147  16.8160298  42.8103157  38.3791604  17.3663485  42.2531155
  41.2197235  15.1752801  63.9040181  41.6896867  15.7994917  64.2908055
  41.2659116  14.5069776  64.4633396  41.2965111  15.1687481  64.0440253
  38.3768509   7.2809828  54.6288985  37.8606998   6.5890020  54.7540564
  37.8162438   7.9480605  54.5751584  38.2175022   7.2773086  54.6395051
  40.4460742   7.8202788  56.4581838  40.0592496   7.8451820  57.2395367
  39.9593680   7.2544467  56.0056354  40.3173251   7.7398539  56.5069741
  44.6953722  22.5376297  60.5155624  45.3333442  22.0436493  60.1818080
  44.0527813  22.4653698  59.9307851  44.6947948  22.4535306  60.3797979
  46.4210722  14.3865443  55.0821540  45.9938330  14.2991792  54.3269639
  45.7836775  14.4943219  55.6676384  46.2640329  14.3898103  55.0566981
  40.1117884   4.7069774  58.7492097  40.7411002   5.2430074  58.4713168
  40.2803747   4.6147133  59.6005663  40.2295679   4.7731136  58.8340626
  39.9131799   9.4940969  61.0218509  40.7405228   9.2226117  61.0777124
  39.9339645  10.2901810  61.3782327  40.0384649   9.5720723  61.0833692
  44.7507978  23.2296106  57.1560981  45.5400357  22.8785170  57.2763063
  44.9251576  24.0432494  56.8937615  44.8928260  23.2981963  57.1348849
  34.4901289  16.6404831  54.2088770  33.6489295  16.5408705  54.4167664
  34.6991297  17.4100312  54.5603090  34.3965981  16.7396875  54.2916085
  31.9676856  14.2624368  52.0373520  31.5733554  14.3367380  51.2623630
  31.4116973  14.6482315  52.5881882  31.8279668  14.3306143  52.0041180
  43.6041803   7.2405662  51.7177399  43.8091396   7.1727970  52.5634396
  43.2768227   8.0464483  51.6498577  43.5857051   7.3491603  51.8337054
  38.3017954  14.5686230  53.4586367  37.9981091  14.0142219  54.0596775
  37.5997375  14.7478440  52.9714401  38.1534164  14.5131013  53.4756073
  37.3584051  11.8786750  48.0231069  37.6343785  11.1605663  47.6108637
  37.9582720  12.4771670  47.8152175  37.4877315  11.8607121  47.9311830
  36.3636305  21.7835951  58.1658465  36.2556660  21.7938013  59.0320523
  36.5732086  22.6090732  57.9763419  36.3786416  21.9077026  58.2662557
  46.8575490   7.7937427  51.1980165  46.2449804   8.2807829  51.5833897
  46.9539665   7.1180917  51.7417816  46.7813388   7.7655735  51.3359023
  40.8594571   9.5500268  46.2977664  41.3138318   9.7210828  47.0225509
  41.3334617   8.9368378  45.8975440  40.9962891   9.4851153  46.3451426
  34.3810097  19.0348594  55.6280403  33.7898030  19.6758092  55.5983418
  35.1431120  19.4586211  55.6011702  34.4058357  19.1924432  55.6195550
  34.7770720  10.1950591  56.2948420  35.2372201  10.2689521  57.0323544
  34.8226826  10.9931845  55.9448242  34.8521275  10.3244738  56.3521177
  36.4254069  10.8617286  60.8620447  36.0339634  10.2150633  61.2976225
  36.5939932  11.4528722  61.4814703  36.3924980  10.8531554  61.0183153
  50.5000518  18.8654363  56.6257681  50.5583642  19.3141012  57.3717657
  49.8666986  19.2753176  56.1887761  50.4151813  18.9928098  56.6710229
  44.1399613  24.4857905  53.0612427  43.9419302  24.9748720  52.3668638
  43.5187324  24.6899147  53.6396560  44.0187177  24.5874443  53.0435650
  38.2007591  16.2542802  47.4022671  38.9449636  16.6417078  47.6405621
  38.3468288  15.4100227  47.5663159  38.3318176  16.1873275  47.4616641
  40.1187167   8.0493061  52.4354533  39.2723212   8.2215869  52.3095883
  40.1158299   7.2442405  52.7720361  39.9934317   7.9554090  52.4665660
  41.1885467  11.8268275  53.3016591  40.7145421  11.3010037  53.8121902
  41.5603603  11.2797748  52.7331452  41.1735356  11.6684272  53.2931738
  31.5658497  13.8239782  58.6700136  32.4284110  13.7235491  58.5837466
  31.2350280  13.2434491  58.1085709  31.6443694  13.7231409  58.5745542
  47.4522198  16.8870651  54.7123371  47.2120421  16.0477066  54.7165798
  47.9314205  16.9670818  55.4364145  47.4874381  16.7752051  54.8198174
  43.1168967  12.7204830  46.3642345  42.5891985  12.8033574  45.6748053
  43.5764675  13.4622701  46.3606989  43.1070817  12.8425492  46.2617040
  49.4527385  13.6672108  52.6652630  49.2137155  13.6267942  51.8273415
  49.6161286  14.5143260  52.7918351  49.4417688  13.7864193  52.5606112
  46.0573415  18.0522057  58.5957675  46.7807614  17.5994584  58.4168695
  45.7923377  18.3326723  57.8130003  46.1254688  18.0273026  58.4536391
  34.9260283  12.6482231  55.3310555  34.3013353  12.6600623  54.7236507
  34.5905878  13.1242406  55.9801795  34.7845775  12.7200748  55.3367123
  35.1102032  10.9907350  41.3883240  34.7614836  11.6427075  41.8514789
  34.6298478  10.9764463  40.6607111  34.9872276  11.0850403  41.3494331
  31.6385959  20.7082691  56.7714319  31.1085883  20.0175130  56.8209294
  31.9111052  20.6992876  55.9427027  31.6010681  20.6049823  56.6561735
  41.8392204  18.1505936  56.7452691  41.2249198  17.6063986  57.0401326
  42.3559489  17.6370172  56.2658507  41.8247867  17.9942345  56.7176919
  41.0788502  19.2210206  54.4796989  40.6516110  18.5959924  54.0462425
  41.0713446  18.9385128  55.3055996  41.0147643  19.0862986  54.5376817
  34.1951029  14.2575379  57.5485423  34.3544515  13.5018703  57.9537145
  34.0143922  14.8066318  58.2026161  34.1916388  14.2269193  57.7048129
  42.1371332   6.4236614  58.1036213  41.6411893   6.6200289  57.4127779
  42.8940394   6.8229283  57.9325014  42.1758156   6.5114348  57.9756349
  39.4074211  10.0978960  54.6939523  39.4316698   9.5639073  54.0052303
  39.6585685   9.5896269  55.3565114  39.4484130   9.9439864  54.6904168
  26.9181801  17.3810455  54.1282667  26.8125250  17.3357300  53.2634751
  26.1682021  17.7264236  54.4096952  26.7917404  17.4251363  54.0419997
  35.6875533   8.8249779  54.0745267  35.7273905   9.3258985  54.7879975
  34.8625198   8.9160172  53.8051191  35.5715059   8.9131595  54.1395806
  37.8705146  18.3910519  62.1765562  37.0200777  18.5282233  62.3123207
  38.0333274  17.6574297  62.6213264  37.7689010  18.3024620  62.2621161
  37.1089897  15.3410288  56.3719167  36.2781827  15.5084106  56.1654415
  37.0541414  14.9646239  57.1568052  36.9779312  15.3100020  56.4567695
  34.9173680   8.8319181  62.0075577  35.5426384   8.2881314  62.2805009
  34.4624160   8.3514099  61.4383368  34.9421941   8.6808663  61.9637171
  35.4825941  13.6165880  46.9009284  35.6228902  14.1138344  47.6037926
  35.9808474  12.9152174  47.0423498  35.5767022  13.5867859  47.0260863
  35.5126163  14.4832991  44.2301861  36.1471243  15.0793416  44.1651323
  35.5951774  14.1836449  45.0447731  35.6182714  14.5273899  44.3404948
  48.4908729  17.0148468  57.0988225  49.0826569  17.6545719  57.1306423
  48.9267723  16.3171505  57.3880292  48.6427160  17.0066819  57.1469058
  37.0905146  10.4146966  44.2047303  37.4120987   9.9350049  43.5506565
  37.3532090  11.2246612  44.0138115  37.1771171  10.4636864  44.0802795
  40.3202119  21.4365841  57.7246119  39.8127210  21.9901688  58.1686750
  40.0228765  21.4974131  56.9064894  40.2007004  21.5272152  57.6694576
  42.4864301   9.8019160  56.5670782  42.9119373   9.3491687  55.9554309
  41.8721294   9.2479231  56.8435570  42.4592946   9.6533137  56.5175807
  32.0179151  16.6800832  47.4991407  32.5271380  17.2765339  47.8802713
  32.4913423  16.4126805  46.8167827  32.1622527  16.7286647  47.4545930
  40.9258524   6.2734260  49.9761359  40.2826842   6.1231906  50.5446498
  40.5857931   6.0276605  49.2110464  40.7803601   6.2146383  49.9464374
  45.5157870  14.2293687  49.3991368  44.8449060  14.7723389  49.2704433
  46.2097621  14.6988542  49.1573063  45.5186738  14.3791958  49.3446895
  39.5644604  26.3690399  54.6303126  39.3410258  25.6109228  54.9987152
  39.0754447  26.3988420  53.9083566  39.4588053  26.2612623  54.5779867
  45.6785998  10.6849571  52.3081741  46.0313608  10.2579293  52.9827540
  44.8200799  10.6000414  52.4382817  45.6035442  10.6094311  52.4276751
  34.3769683  13.3157090  50.3664587  33.6581672  13.7321223  50.6337451
  34.7482045  13.8811329  49.8156226  34.3261615  13.4606372  50.3247394
  43.6769264  13.9484939  56.2566583  43.6567191  13.7668234  57.1101362
  43.7248464  14.8196958  56.2326167  43.6803905  14.0501477  56.3789878
  41.6215593  20.5372131  62.1815060  41.5811448  19.8921808  61.5960216
  42.4338912  20.4808749  62.4940472  41.7358747  20.4331098  62.1412009
  41.5788355  25.7480942  52.8363827  41.1804638  25.8583213  52.0684647
  40.9639575  25.9563009  53.4190387  41.4287244  25.7954510  52.8095127
  40.1516257  12.3555090  45.7037967  39.5581096  12.6772087  45.1522534
  40.1891535  11.5096186  45.4959073  40.0690646  12.2779418  45.5920738
  47.1110058   5.8067982  53.2366053  46.6040922   5.0997122  53.1687231
  47.9077492   5.4761171  53.3667130  47.1537297   5.6541134  53.2465048
  43.0274074  12.3134595  49.1339717  42.7987767  12.3367296  48.2918075
  43.2872150  11.4892062  49.2534728  43.0320262  12.1950675  49.0264915
  37.3093302  14.1669068  58.7364817  36.7972205  13.5590251  59.0949849
  37.1372798  14.8825660  59.2038793  37.2082939  14.1832367  58.8581041
  32.1559017  12.6106643  61.3867179  31.9861607  13.2708018  60.8415386
  31.7124967  12.8213204  62.1079668  32.0658350  12.7392625  61.4128809
  36.0818836  10.8511141  50.4293913  36.5576202  11.2128221  49.7944094
  35.5807436  11.5067609  50.7094056  36.0784195  11.0005330  50.3770654
  41.1862372  12.0893312  61.1767073  41.7433803  11.8607122  60.5445538
  40.8623437  12.8498978  60.9002285  41.2208783  12.1677149  61.0423570
  29.0561081  15.5153509  56.6455669  28.5087801  14.8454154  56.7636537
  29.8453460  15.1483356  56.7099136  29.0913265  15.3618495  56.6724370
  38.9045490  15.1760966  62.1419080  39.6556817  15.4912642  62.4558634
  39.0968066  14.9740137  61.3153002  39.0436904  15.1928347  62.0662476
  38.1245489  12.9952341  43.7967297  38.5044454  13.0131970  43.0118412
  37.3838085  13.4406330  43.6758144  38.0714327  13.0634115  43.6630865
  45.7530780  11.3034532  49.3842875  45.7525006  11.1483189  50.2427152
  45.5486960  12.1497519  49.3284261  45.7230558  11.4055153  49.5030815
  27.8148051  14.7274316  53.8001692  27.6369812  14.2750925  54.5256608
  27.5267073  15.5300478  53.9840170  27.7461004  14.7796874  53.9345195
  43.4771632  15.9832034  53.0379082  43.9725297  15.2655029  52.9983103
  42.6671408  15.6802831  52.9233569  43.4315525  15.8329680  53.0152808
  45.5423451  18.7335721  55.7256211  45.9678522  18.2110143  55.1726636
  45.1780371  19.3316559  55.2044834  45.5510053  18.7445948  55.5665221
  35.1777531  27.0299939  54.4853557  35.4924090  27.8436327  54.4931338
  35.5870944  26.6450157  55.1535716  35.2845629  27.0928641  54.5857648
  42.1302050  22.4469985  52.0557369  42.6013228  23.1610248  52.2247354
  42.4662229  21.8468736  52.5917238  42.2497165  22.4641450  52.1589744
  44.2179035  24.0571299  64.2349441  44.3276000  23.2679859  64.5906188
  44.5469931  23.9677235  63.4323779  44.2831441  23.9277152  64.1691831
  39.0471545   7.2197456  59.0115463  39.1799451   6.4228449  59.3396439
  39.4316698   7.7463859  59.5913739  39.1227874   7.1797373  59.1458966
  42.7675997  22.2387920  58.8185061  42.2196943  21.6145803  58.5505127
  43.2289025  22.4282192  58.1029141  42.7543206  22.1746970  58.6735492
  42.1203900   4.1427782  55.6096557  41.3149864   4.0325512  55.9264395
  41.9910636   4.2440238  54.7526422  41.9824033   4.1411452  55.5304597
  45.5769861  10.3073274  56.2036254  44.9932850  10.8082481  55.7913821
  45.8974155   9.8002830  55.5700577  45.5383036  10.3065109  56.0494761
  38.1164660   9.2213869  46.4794928  38.9380354   9.3912182  46.2376623
  37.6534311   9.3761130  45.7561226  38.1695822   9.2695602  46.3366573
  36.7059992   7.2156631  57.2593357  37.2504405   6.8747758  57.8497699
  36.7596928   8.0742093  57.4014642  36.7949111   7.2911891  57.3675230
  32.5190551  20.9773047  54.1332165  33.1235408  20.9368881  53.5045986
  32.3117863  21.8244199  54.1636221  32.5779448  21.0961050  54.0448282
  42.3334323  23.2438992  55.3494402  43.1532697  23.1001958  55.6110698
  42.0528401  23.8685191  55.8910840  42.4131066  23.3149344  55.4682342
  27.7541833  19.9607665  54.0031088  27.6566111  19.1503936  54.3121145
  28.5370703  19.9399458  53.6177356  27.8557969  19.8374755  53.9917951
  58.8047973  30.9003844  48.3137279  58.7741978  31.7548481  48.4855548
  59.4029322  30.5999137  48.8723422  58.8885131  30.9820341  48.4212081
  52.0047658  29.9879495  53.0690209  51.1485554  30.1487993  53.1199326
  52.0515312  29.1171559  53.0895270  51.8846770  29.8830297  53.0796275
  55.3141375  36.2566021  62.6750665  56.0208142  35.7618051  62.8037600
  55.5029310  36.6975102  61.9453323  55.4469280  36.2484371  62.5859711
  54.8499479  32.0471539  55.7121861  55.3955439  32.7256626  55.7715831
  54.7916355  31.9059000  54.8523442  54.9215393  32.1263541  55.5933921
  43.4628686  27.7266622  53.6226855  42.8433717  27.1359270  53.4536869
  43.3612549  28.3178057  52.9891178  43.3566361  27.7270705  53.5031844
  50.5596581  29.4666164  47.9559318  51.2576746  29.6454292  48.4480781
  50.8748914  28.9436503  47.3329707  50.7091919  29.4159936  47.9361328
  43.1897819  31.2718904  55.8670424  43.0656516  31.8581349  56.5020242
  43.8416103  30.7779100  56.1682699  43.2671468  31.2857708  56.0056353
  48.7323445  24.8358561  52.0380592  48.4026775  25.2869704  51.3684291
  48.0568447  24.7574724  52.5853599  48.5833881  24.8909696  52.0203816
  55.9399853  20.8244084  50.2830203  55.6253294  21.5147562  50.7150625
  55.4226794  20.7688866  49.5815704  55.8164323  20.9178972  50.2427152
  60.7360339  36.3994889  51.7700658  59.9058043  36.6105533  51.9334075
  60.6869592  35.5731944  51.4942942  60.6067075  36.3084495  51.7538023
  60.2314298  29.0465290  55.5651079  59.3942719  29.1167477  55.7998674
  60.2002529  29.0489784  54.6925382  60.1032580  29.0575517  55.4710627
  46.6279027  31.1898325  61.2799448  46.7999530  31.0804220  62.1284729
  47.1648384  31.8352731  61.0430640  46.7324031  31.2690327  61.3704545
  57.9924655  37.0694243  51.9065374  57.5559887  37.0730986  52.6624345
  57.6587570  37.7499742  51.4744951  57.8787275  37.1706699  51.9546206
  52.5653728  39.1102576  63.2308524  53.3494145  39.2233424  63.5964266
  52.3650323  38.2843713  63.4267210  52.6519754  39.0049296  63.3142910
  57.9122138  24.1108071  54.1494802  58.5548046  24.1806176  54.7356717
  58.1645158  23.4437294  53.6474344  58.0444270  24.0234420  54.1622081
  45.6839350  27.3208635  58.7619376  44.9911147  26.8505614  59.0080107
  46.2999677  27.0946939  59.3361083  45.6723880  27.2175766  58.8828528
  61.1269001  33.7875163  50.7985011  61.7885435  33.2265832  50.6980920
  60.4860413  33.2927194  51.1237702  61.1297868  33.6311572  50.8317351
  57.4133832  34.8040546  50.5397000  57.6489421  34.9485745  49.7123850
  57.5623395  35.5682954  50.9328513  57.4699635  34.9379600  50.4760604
  44.4079909  31.2874039  59.9046221  45.1319881  31.2727069  60.3911116
  44.5096046  31.9969394  59.4068189  44.5298118  31.3898742  59.9025008
  59.2424288  33.6442212  48.3766604  59.5732505  34.1769852  47.7706699
  59.8157376  33.6981099  49.0328555  59.3757967  33.7311780  48.3844385
  51.7824858  34.7673123  64.7695168  50.9897839  35.0816635  64.9547788
  51.8973786  34.9824592  63.9315953  51.6820269  34.8456960  64.6733503
  52.7108651  34.6693327  59.7080465  53.2847513  34.0320571  59.8629029
  52.6323455  34.6697409  58.8390122  52.7841886  34.5758438  59.6026876
  53.1473420  25.2045043  51.8605755  52.4429747  24.7154228  52.0189674
  53.1958394  25.2167517  50.9894199  53.0503472  25.1334691  51.7545095
  50.7080371  29.1277704  57.1058935  50.3194803  28.7031922  56.4511126
  50.0435069  29.3759853  57.6135962  50.5527298  29.1016425  57.0846803
  60.3503640  28.8852709  49.8806765  60.0940205  28.0732650  49.6904648
  61.1932954  28.8930276  49.6536953  60.4369665  28.7664706  49.8191582
  54.5306732  22.8252333  54.6182919  54.9117244  22.1430504  55.0050794
  53.7270016  22.5361935  54.4358584  54.4683194  22.6819381  54.6486975
  58.0328799  36.0402305  59.7165318  57.7967436  35.2090369  59.5977378
  58.6772028  35.9887912  60.3020162  58.0923470  35.9099993  59.7851211
  48.4898573  25.3306531  64.4845528  48.1752014  26.1006094  64.2215091
  48.1688505  24.7676787  63.8997755  48.3957492  25.3616800  64.3586878
  59.0565220  35.8246753  55.7793612  58.7511037  36.5574810  56.1406928
  58.3371435  35.4184683  55.4986398  58.9052562  35.8728486  55.7906749
  64.7567012  32.4639754  55.1061957  64.6891512  32.4835713  54.2364543
  64.7422674  33.3070081  55.3317627  64.7445768  32.5913489  55.0114434
  46.0430470  23.7197052  50.0991724  45.1752895  23.7919652  50.1649333
  46.3305674  24.5219131  50.2879699  45.9570218  23.8491199  50.1366491
  62.5425629  31.2384140  53.3808551  63.0933551  30.6052209  53.6205643
  62.5269745  31.7699533  54.0724055  62.6210826  31.2233088  53.5187409
  49.1948020  35.0722737  57.9268444  48.6959714  35.7838505  58.0053333
  50.0048244  35.3923404  57.8886607  49.2404127  35.2249586  57.9325013
  56.2454035  29.4780474  52.4913147  55.9018801  28.7570809  52.8420397
  56.3447078  29.2694325  51.6491505  56.2096078  29.3404677  52.4184827
  48.1215078  27.9303782  63.2230743  47.3114854  28.2361562  63.1120585
  48.5989765  28.6509364  63.3383327  48.0718557  28.0818383  63.2237814
  54.7645001  27.3972059  54.3672690  53.9256101  27.4233338  54.1310953
  54.8349368  28.0442794  54.9478037  54.6513394  27.4968184  54.4181807
  44.4559110  33.4666332  58.0930145  44.9680207  33.7450586  57.4438905
  44.1695453  34.2055626  58.4592958  44.4893973  33.6168686  58.0520023
  53.2114279  24.2957436  49.1000306  53.9140632  24.0965184  48.6220264
  52.9458468  23.5233378  49.4069150  53.2760911  24.1520402  49.0745748
  58.6402525  32.6040045  51.6533932  58.5536499  32.7595471  52.5068711
  58.1853005  33.2478121  51.2793337  58.5605781  32.7215800  51.7241039
  47.9742835  25.5592721  58.1531187  47.7826032  25.5747855  59.0030610
  48.8241431  25.7556395  58.1297842  48.0718557  25.5907072  58.2754481
  42.3589748  28.0883702  56.1315003  42.2175240  27.2367643  56.2559511
  42.6430312  28.1312363  55.3077209  42.3797594  27.9683452  56.0282627
  52.5128341  29.9250793  50.2759491  52.2663055  29.8446543  51.1096280
  52.8413464  29.1404260  50.0822019  52.5249584  29.7977058  50.3707014
  56.4076390  36.6334152  54.0646273  56.2690749  37.3315198  54.5695015
  55.6276387  36.4782808  53.7082454  56.2719616  36.7134318  54.0872547
  54.7454475  32.9330527  60.3168654  54.7402513  32.0610344  60.3211081
  55.4515469  33.1318696  59.8438110  54.8499479  32.8334401  60.2475690
  48.4725368  32.6607511  59.6882474  48.6168744  33.2408719  59.0525584
  48.8201017  33.0383808  60.3932329  48.5452829  32.8028215  59.6981469
  50.6445285  31.8597679  57.4707606  49.8968599  32.0528694  57.0655884
  50.7986811  31.0342899  57.2331727  50.5567713  31.7662791  57.3753012
  50.8847062  25.7548230  58.3603010  51.3419676  26.4872205  58.4875802
  50.9603391  25.3314695  59.1190266  50.9638032  25.8005468  58.4904086
  55.3574388  18.9338105  52.2296853  55.4757956  19.3914569  51.4964155
  55.1836564  18.1283367  51.9433070  55.3493559  18.8831877  52.0797786
  48.7629440  27.7450334  55.2044834  47.9725515  27.5641794  55.5262170
  49.1590063  26.9677287  55.1875128  48.7046316  27.6037795  55.2497382
  51.2767271  30.2210593  59.6868333  51.2126412  31.0820550  59.5588469
  51.4164458  29.9042586  58.8863884  51.2882741  30.3010760  59.5496546
  55.6565061  36.9955315  65.2432784  56.4699927  36.7240464  65.4037916
  55.4960028  36.6962855  64.4392979  55.7535010  36.9110241  65.1478189
  52.9337223  27.6788972  58.1828172  53.1479193  27.0399886  57.6291526
  52.3171123  28.1234796  57.7536034  52.8742553  27.6499116  58.0378603
  55.0976311  29.2878037  59.1211479  54.2852993  28.9803928  59.2024652
  55.5566246  28.8077037  59.6854191  55.0456696  29.1714530  59.2166073
  52.3251952  20.7888908  53.1715515  51.4545510  20.7627629  53.1248824
  52.5792293  20.6166100  52.3541360  52.2345512  20.7599051  53.0435651
  52.1929819  30.6938109  63.9040181  52.6629450  31.3180225  64.2908055
  52.2391699  30.0255084  64.4633396  52.2697695  30.6872789  64.0440253
  49.3501093  22.7995136  54.6288985  48.8339581  22.1075328  54.7540564
  48.7895021  23.4665913  54.5751584  49.1907606  22.7958394  54.6395051
  51.4193326  23.3388096  56.4581838  51.0325079  23.3637128  57.2395367
  50.9326263  22.7729775  56.0056354  51.2905835  23.2583847  56.5069741
  55.6686305  38.0561605  60.5155624  56.3066026  37.5621801  60.1818080
  55.0260397  37.9839006  59.9307851  55.6680532  37.9720614  60.3797979
  57.3943306  29.9050751  55.0821540  56.9670914  29.8177100  54.3269639
  56.7569358  30.0128527  55.6676384  57.2372913  29.9083411  55.0566981
  51.0850468  20.2255082  58.7492097  51.7143586  20.7615382  58.4713168
  51.2536330  20.1332441  59.6005663  51.2028262  20.2916444  58.8340626
  50.8864383  25.0126276  61.0218509  51.7137812  24.7411425  61.0777124
  50.9072229  25.8087118  61.3782327  51.0117233  25.0906031  61.0833692
  55.7240562  38.7481413  57.1560981  56.5132940  38.3970478  57.2763063
  55.8984160  39.5617802  56.8937615  55.8660844  38.8167271  57.1348849
  54.5774386  22.7590970  51.7177399  54.7823980  22.6913278  52.5634396
  54.2500810  23.5649791  51.6498577  54.5589634  22.8676911  51.8337054
  49.2750537  30.0871538  53.4586367  48.9713675  29.5327527  54.0596775
  48.5729958  30.2663748  52.9714401  49.1266747  30.0316321  53.4756073
  57.8308074  23.3122734  51.1980165  57.2182388  23.7993137  51.5833897
  57.9272249  22.6366225  51.7417816  57.7545972  23.2841043  51.3359023
  51.8327155  25.0685576  46.2977664  52.2870901  25.2396136  47.0225509
  52.3067201  24.4553686  45.8975440  51.9695475  25.0036461  46.3451426
  45.7503303  25.7135899  56.2948420  46.2104785  25.7874829  57.0323544
  45.7959410  26.5117153  55.9448242  45.8253858  25.8430046  56.3521177
  47.3986653  26.3802594  60.8620447  47.0072218  25.7335941  61.2976225
  47.5672516  26.9714029  61.4814703  47.3657563  26.3716862  61.0183153
  61.4733102  34.3839671  56.6257681  61.5316226  34.8326320  57.3717657
  60.8399569  34.7938484  56.1887761  61.3884397  34.5113406  56.6710229
  55.1132197  40.0043213  53.0612427  54.9151885  40.4934028  52.3668638
  54.4919908  40.2084455  53.6396560  54.9919761  40.1059751  53.0435650
  51.0919750  23.5678369  52.4354533  50.2455795  23.7401177  52.3095883
  51.0890883  22.7627713  52.7720361  50.9666900  23.4739398  52.4665660
  52.1618051  27.3453583  53.3016591  51.6878005  26.8195345  53.8121902
  52.5336187  26.7983056  52.7331452  52.1467940  27.1869580  53.2931738
  42.5391081  29.3425090  58.6700136  43.4016694  29.2420799  58.5837466
  42.2082864  28.7619799  58.1085709  42.6176277  29.2416717  58.5745542
  58.4254781  32.4055959  54.7123371  58.1853004  31.5662374  54.7165798
  58.9046789  32.4856126  55.4364145  58.4606965  32.2937359  54.8198174
  54.0901550  28.2390138  46.3642345  53.5624569  28.3218882  45.6748053
  54.5497259  28.9808009  46.3606989  54.0803401  28.3610800  46.2617040
  60.4259968  29.1857416  52.6652630  60.1869738  29.1453250  51.8273415
  60.5893870  30.0328568  52.7918351  60.4150272  29.3049501  52.5606112
  57.0305998  33.5707365  58.5957675  57.7540197  33.1179892  58.4168695
  56.7655961  33.8512031  57.8130003  57.0987272  33.5458334  58.4536391
  45.8992867  28.1667539  55.3310555  45.2745937  28.1785931  54.7236507
  45.5638462  28.6427714  55.9801795  45.7578359  28.2386056  55.3367123
  52.8124788  33.6691244  56.7452691  52.1981781  33.1249294  57.0401326
  53.3292073  33.1555480  56.2658507  52.7980450  33.5127653  56.7176919
  45.1683612  29.7760687  57.5485423  45.3277099  29.0204011  57.9537145
  44.9876506  30.3251626  58.2026161  45.1648971  29.7454501  57.7048129
  53.1103915  21.9421922  58.1036213  52.6144477  22.1385597  57.4127779
  53.8672977  22.3414591  57.9325014  53.1490740  22.0299656  57.9756349
  50.3806795  25.6164268  54.6939523  50.4049282  25.0824381  54.0052303
  50.6318268  25.1081577  55.3565114  50.4216714  25.4625172  54.6904168
  46.6608117  24.3435086  54.0745267  46.7006489  24.8444293  54.7879975
  45.8357782  24.4345480  53.8051191  46.5447643  24.4316903  54.1395806
  48.8437730  33.9095826  62.1765562  47.9933361  34.0467541  62.3123207
  49.0065858  33.1759605  62.6213264  48.7421594  33.8209928  62.2621161
  48.0822480  30.8595596  56.3719167  47.2514410  31.0269414  56.1654415
  48.0273998  30.4831547  57.1568052  47.9511895  30.8285328  56.4567695
  45.8906264  24.3504489  62.0075577  46.5158967  23.8066622  62.2805009
  45.4356744  23.8699407  61.4383368  45.9154524  24.1993971  61.9637171
  59.4641312  32.5333776  57.0988225  60.0559153  33.1731027  57.1306423
  59.9000307  31.8356813  57.3880292  59.6159744  32.5252127  57.1469058
  51.2934702  36.9551149  57.7246119  50.7859793  37.5086995  58.1686750
  50.9961349  37.0159439  56.9064894  51.1739587  37.0457460  57.6694576
  53.4596885  25.3204468  56.5670782  53.8851956  24.8676995  55.9554309
  52.8453878  24.7664539  56.8435570  53.4325530  25.1718444  56.5175807
  51.8991107  21.7919568  49.9761359  51.2559425  21.6417214  50.5446498
  51.5590514  21.5461913  49.2110464  51.7536185  21.7331691  49.9464374
  56.4890454  29.7478995  49.3991368  55.8181644  30.2908697  49.2704433
  57.1830204  30.2173850  49.1573063  56.4919321  29.8977266  49.3446895
  56.6518581  26.2034878  52.3081741  57.0046191  25.7764601  52.9827540
  55.7933383  26.1185722  52.4382817  56.5768026  26.1279619  52.4276751
  54.6501847  29.4670247  56.2566583  54.6299774  29.2853542  57.1101362
  54.6981048  30.3382266  56.2326167  54.6536488  29.5686785  56.3789878
  52.5948177  36.0557439  62.1815060  52.5544032  35.4107116  61.5960216
  53.4071495  35.9994056  62.4940472  52.7091331  35.9516406  62.1412009
  51.1248841  27.8740398  45.7037967  50.5313680  28.1957395  45.1522534
  51.1624118  27.0281493  45.4959073  51.0423230  27.7964726  45.5920738
  58.0842641  21.3253290  53.2366053  57.5773506  20.6182430  53.1687231
  58.8810075  20.9946479  53.3667130  58.1269881  21.1726442  53.2465048
  54.0006657  27.8319903  49.1339717  53.7720350  27.8552604  48.2918075
  54.2604733  27.0077370  49.2534728  54.0052845  27.7135983  49.0264915
  48.2825886  29.6854376  58.7364817  47.7704789  29.0775559  59.0949849
  48.1105382  30.4010968  59.2038793  48.1815523  29.7017675  58.8581041
  43.1291600  28.1291951  61.3867179  42.9594191  28.7893326  60.8415386
  42.6857550  28.3398512  62.1079668  43.0390934  28.2577933  61.4128809
  47.0551420  26.3696449  50.4293913  47.5308786  26.7313529  49.7944094
  46.5540019  27.0252916  50.7094056  47.0516779  26.5190638  50.3770654
  60.2862781  35.8418217  46.2206918  60.6696387  36.5909573  46.4505015
  59.4906895  36.0884037  45.9618907  60.2256564  35.9887911  46.2164491
  52.1594956  27.6078620  61.1767073  52.7166386  27.3792430  60.5445538
  51.8356021  28.3684286  60.9002285  52.1941366  27.6862457  61.0423570
  40.0293665  31.0338816  56.6455669  39.4820384  30.3639462  56.7636537
  40.8186043  30.6668664  56.7099136  40.0645849  30.8803803  56.6724370
  49.8778073  30.6946274  62.1419080  50.6289400  31.0097950  62.4558634
  50.0700650  30.4925444  61.3153002  50.0169487  30.7113655  62.0662476
  56.7263363  26.8219840  49.3842875  56.7257590  26.6668496  50.2427152
  56.5219544  27.6682827  49.3284261  56.6963141  26.9240461  49.5030815
  38.7880634  30.2459624  53.8001692  38.6102395  29.7936233  54.5256608
  38.4999657  31.0485786  53.9840170  38.7193588  30.2982182  53.9345195
  54.4504215  31.5017342  53.0379082  54.9457881  30.7840337  52.9983103
  53.6403991  31.1988139  52.9233569  54.4048109  31.3514988  53.0152808
  56.5156034  34.2521029  55.7256211  56.9411106  33.7295451  55.1726636
  56.1512954  34.8501867  55.2044834  56.5242637  34.2631256  55.5665221
  55.1911618  39.5756607  64.2349441  55.3008584  38.7865167  64.5906188
  55.5202515  39.4862543  63.4323779  55.2564024  39.4462460  64.1691831
  50.0204129  22.7382764  59.0115463  50.1532034  21.9413757  59.3396439
  50.4049282  23.2649167  59.5913739  50.0960458  22.6982681  59.1458966
  53.7408580  37.7573228  58.8185061  53.1929526  37.1331111  58.5505127
  54.2021609  37.9467500  58.1029141  53.7275790  37.6932278  58.6735492
  53.0936484  19.6613090  55.6096557  52.2882448  19.5510820  55.9264395
  52.9643219  19.7625546  54.7526422  52.9556617  19.6596760  55.5304597
  56.5502444  25.8258582  56.2036254  55.9665433  26.3267789  55.7913821
  56.8706739  25.3188138  55.5700577  56.5115620  25.8250417  56.0494761
  47.6792576  22.7341939  57.2593357  48.2236989  22.3933066  57.8497699
  47.7329511  23.5927401  57.4014642  47.7681695  22.8097198  57.3675230
  53.3066906  38.7624300  55.3494402  54.1265280  38.6187266  55.6110698
  53.0260984  39.3870499  55.8910840  53.3863650  38.8334652  55.4682342
  69.7780557  46.4189152  48.3137279  69.7474561  47.2733789  48.4855548
  70.3761906  46.1184445  48.8723422  69.8617715  46.5005649  48.4212081
  62.9780242  45.5064803  53.0690209  62.1218137  45.6673301  53.1199326
  63.0247895  44.6356867  53.0895270  62.8579353  45.4015605  53.0796275
  57.3621381  55.0427521  48.8327441  56.6104281  54.6643059  48.6043486
  57.8107393  55.0745954  48.0846251  57.3171048  54.9913128  48.6884943
  66.2873958  51.7751329  62.6750665  66.9940725  51.2803359  62.8037600
  66.4761894  52.2160410  61.9453323  66.4201864  51.7669679  62.5859711
  62.3550633  57.4167159  50.2024099  62.7390012  57.9854058  49.6628875
  62.2909774  56.6916669  49.7229915  62.4024060  57.3942622  50.0517962
  65.8232063  47.5656847  55.7121861  66.3688023  48.2441934  55.7715831
  65.7648939  47.4244308  54.8523442  65.8947977  47.6448849  55.5933921
  58.9406138  55.0545913  51.0990213  59.0416500  54.2446267  51.4087341
  58.3447883  54.9602859  50.4689892  58.8678676  54.9210941  51.0516452
  67.5997131  48.9941454  46.5855589  67.4836657  49.7449140  47.0147727
  68.3953018  48.7365407  46.8351676  67.7001721  49.0676301  46.6859680
  58.7806877  59.9723502  52.5005069  59.4244333  60.4136666  52.8901228
  59.1063133  59.1676928  52.4135328  58.9238706  59.9188697  52.5450547
  59.4827457  52.9835477  47.8724931  59.8043298  53.5240684  47.2686239
  60.1299553  52.4132248  48.0047221  59.6253512  52.9794652  47.8031966
  61.7217100  51.3721917  47.9439109  62.1610736  50.7639018  48.3893882
  61.5721763  50.9929290  47.1724574  61.7638566  51.2260388  47.8958277
  59.1888743  49.9665929  55.1457935  59.8337746  49.4738372  54.8268883
  59.4290520  50.1090715  55.9724013  59.3199328  49.9143371  55.2207468
  61.7274835  52.8120835  54.7964827  62.0098078  52.0172240  54.5751583
  62.4560995  53.2901422  54.8169888  61.8764398  52.7655432  54.7667842
  59.7056029  40.3543869  52.0380592  59.3759359  40.8055012  51.3684291
  59.0301030  40.2760032  52.5853599  59.5566465  40.4095004  52.0203816
  65.3226437  49.7249098  44.8969878  65.2377732  50.5810065  45.0419447
  65.8110820  49.4493422  45.5652038  65.3815334  49.8106420  45.0171960
  66.9132436  36.3429392  50.2830203  66.5985877  37.0332870  50.7150625
  66.3959378  36.2874174  49.5815704  66.7896907  36.4364280  50.2427152
  66.2544870  46.3433892  46.3967614  65.7256342  46.5593526  47.0564920
  66.7769890  47.0370031  46.3168583  66.2533323  46.4777029  46.4823213
  71.7092923  51.9180197  51.7700658  70.8790626  52.1290841  51.9334075
  71.6602175  51.0917251  51.4942942  71.5799658  51.8269803  51.7538023
  53.6988506  55.9551870  51.9998753  53.2156085  56.6802360  51.9758337
  54.5111825  56.2528000  52.1108911  53.7479254  56.1054224  52.0126032
  59.7702661  54.7484051  54.6048568  59.2529602  54.3891466  54.0009876
  60.4677052  54.2246226  54.6154634  59.7968242  54.6181739  54.5178826
  63.4266253  55.1978865  60.5664741  63.5149598  55.0105006  61.4142951
  63.8555965  54.5516295  60.1669587  63.5028355  55.0741873  60.6336492
  60.9936712  54.4810025  59.5482403  60.4307547  54.0682635  60.0722064
  61.7557736  54.4062931  59.9675546  61.0231161  54.4087426  59.6875403
  56.5532704  56.4708046  52.1519033  57.2553283  55.9560035  52.2091789
  56.4730187  56.7982198  52.9565908  56.6456464  56.4422272  52.2791825
  71.2046881  44.5650598  55.5651079  70.3675302  44.6352785  55.7998674
  71.1735112  44.5675092  54.6925382  71.0765164  44.5760825  55.4710627
  57.6011610  46.7083633  61.2799448  57.7732114  46.5989528  62.1284729
  58.1380968  47.3538039  61.0430640  57.7056614  46.7875635  61.3704545
  56.5036182  53.0815273  55.9617946  57.0434407  52.9386405  56.6321319
  55.8206128  53.4812024  56.3301973  56.4828336  53.1194944  56.1152368
  61.9468766  37.8252887  47.2530677  62.6754927  37.6468842  46.8068833
  62.0363659  38.6670967  47.4637855  62.0675428  37.9236765  47.2184195
  65.9277067  48.7606274  51.1562971  66.6834582  49.1937788  51.1951880
  66.0339392  48.1111044  51.7297607  66.0547238  48.7283758  51.2460996
  68.9657238  52.5879551  51.9065374  68.5292470  52.5916294  52.6624345
  68.6320154  53.2685050  51.4744951  68.8519858  52.6892007  51.9546206
  63.5386312  54.6287884  63.2308524  64.3226728  54.7418732  63.5964266
  63.3382906  53.8029021  63.4267210  63.6252337  54.5234604  63.3142910
  68.8854721  39.6293379  54.1494802  69.5280630  39.6991484  54.7356717
  69.1377742  38.9622602  53.6474344  69.0176853  39.5419728  54.1622081
  63.6956705  56.5397986  56.8774980  62.8971951  56.2997486  57.1348848
  64.1442717  56.5912379  57.6242027  63.6431316  56.5120377  57.0259904
  72.1001584  49.3060471  50.7985011  72.7618019  48.7451140  50.6980920
  71.4592996  48.8112502  51.1237702  72.1030452  49.1496880  50.8317351
  62.9878392  52.6030603  43.1065934  63.4029541  52.2715626  42.4150430
  62.1570322  52.3699505  42.9786071  62.9266401  52.5201859  42.9856782
  68.3866415  50.3225854  50.5397000  68.6222004  50.4671053  49.7123850
  68.5355979  51.0868262  50.9328513  68.4432218  50.4564908  50.4760604
  70.2156872  49.1627520  48.3766604  70.5465089  49.6955160  47.7706699
  70.7889960  49.2166407  49.0328555  70.3490551  49.2497088  48.3844385
  62.7557442  50.2858431  64.7695168  61.9630423  50.6001943  64.9547788
  62.8706369  50.5009900  63.9315953  62.6552853  50.3642268  64.6733503
  65.4288761  47.0092422  49.0590184  65.5235615  47.7481716  49.5129809
  64.8047605  46.5809898  49.4924748  65.3497791  47.0553743  49.1898331
  63.6841235  50.1878635  59.7080465  64.2580096  49.5505879  59.8629029
  63.6056039  50.1882717  58.8390122  63.7574470  50.0943746  59.6026876
  65.6811782  48.8541162  42.2927136  65.5991945  48.9243349  43.1582123
  66.3191503  49.4170906  42.1010876  65.7631620  48.9480133  42.3917085
  59.0404953  48.6201900  51.7601662  58.7824198  47.7873635  51.7332962
  59.0953436  48.8459513  50.9194162  59.0104731  48.5299671  51.6321799
  64.1206004  40.7230351  51.8605755  63.4162330  40.2339536  52.0189674
  64.1690978  40.7352825  50.9894199  64.0236055  40.6519999  51.7545095
  61.6812954  44.6463012  57.1058935  61.2927387  44.2217230  56.4511126
  61.0167653  44.8945161  57.6135962  61.5259882  44.6201733  57.0846803
  71.3236223  44.4038016  49.8806765  71.0672788  43.5917958  49.6904648
  72.1665537  44.4115584  49.6536953  71.4102249  44.2850014  49.8191582
  65.5039316  38.3437641  54.6182919  65.8849828  37.6615812  55.0050794
  64.7002600  38.0547243  54.4358584  65.4415777  38.2004689  54.6486975
  69.0061383  51.5587612  59.7165318  68.7700020  50.7275677  59.5977378
  69.6504612  51.5073220  60.3020162  69.0656053  51.4285300  59.7851211
  58.6559801  52.3483134  50.4308054  59.2933748  52.1094881  50.9759848
  59.0814872  52.5520293  49.6961215  58.8135967  52.3434144  50.4025212
  53.3472443  54.5871470  54.3142358  53.3876588  54.8586321  53.4862138
  53.9066967  55.1113378  54.7300146  53.4355789  54.7047225  54.2534246
  59.4631156  40.8491839  64.4845528  59.1484597  41.6191402  64.2215091
  59.1421089  40.2862095  63.8997755  59.3690075  40.8802107  64.3586878
  70.0297803  51.3432061  55.7793612  69.7243620  52.0760118  56.1406928
  69.3104019  50.9369991  55.4986398  69.8785146  51.3913794  55.7906749
  61.0381273  52.8255556  52.1101841  61.1120281  52.6630728  52.9643690
  61.8550779  53.0145746  51.8662322  61.1697631  52.8292299  52.1999866
  75.7299595  47.9825062  55.1061957  75.6624096  48.0021021  54.2364543
  75.7155258  48.8255389  55.3317627  75.7178352  48.1098797  55.0114434
  66.1395942  39.3860220  58.4303046  66.8849534  39.1970030  58.0166471
  65.7233247  39.9118458  57.8716902  66.1880916  39.4362365  58.2867619
  59.5785858  55.7890299  46.8415314  59.8684157  55.3979281  46.1174541
  60.3089339  55.9707004  47.2820589  59.7292743  55.7584113  46.7998121
  73.5158213  46.7569448  53.3808551  74.0666134  46.1237517  53.6205643
  73.5002328  47.2884841  54.0724055  73.5943409  46.7418396  53.5187409
  60.1680604  50.5908045  57.9268444  59.6692297  51.3023813  58.0053333
  60.9780828  50.9108712  57.8886607  60.2136710  50.7434894  57.9325013
  57.5191774  57.7657682  49.9075464  57.2992069  57.4755037  50.7002131
  57.2986296  57.1072637  49.3793376  57.4539368  57.6257390  49.9464372
  67.2186619  44.9965782  52.4913147  66.8751385  44.2756117  52.8420397
  67.3179662  44.7879633  51.6491505  67.1828662  44.8589985  52.4184827
  59.6859730  59.1387072  48.6906156  60.3383788  58.6063514  48.9197182
  58.9885338  58.7855724  49.0774030  59.6790448  59.0076595  48.7818324
  67.6799648  51.4591486  48.0337135  68.2457681  52.1184696  47.9495678
  67.0327551  51.8041184  48.5053537  67.6678404  51.6073427  48.0909892
  59.0947662  43.4489090  63.2230743  58.2847437  43.7546870  63.1120585
  59.5722348  44.1694672  63.3383327  59.0451140  43.6003691  63.2237814
  57.9539221  52.6634811  53.4713646  57.4319975  52.8035102  54.1565510
  58.3413241  51.9045475  53.6615763  57.9342922  52.5720335  53.6014722
  64.1506226  54.4030270  47.4574215  63.9092902  53.6698131  47.0501280
  64.3307559  54.9517127  46.8040548  64.1413850  54.3752661  47.3004437
  59.3805547  49.6938830  48.8695137  59.1848329  50.3013564  48.2755440
  59.6039892  49.0006774  48.3886811  59.3840188  49.6816355  48.7111218
  65.7377584  42.9157367  54.3672690  64.8988685  42.9418645  54.1310953
  65.8081952  43.5628102  54.9478037  65.6245978  43.0153492  54.4181807
  64.1846863  39.8142744  49.1000306  64.8873215  39.6150492  48.6220264
  63.9191051  39.0418686  49.4069150  64.2493495  39.6705710  49.0745748
  69.6135108  48.1225353  51.6533932  69.5269083  48.2780779  52.5068711
  69.1585588  48.7663429  51.2793337  69.5338365  48.2401108  51.7241039
  58.9475419  41.0778029  58.1531187  58.7558616  41.0933163  59.0030610
  59.7974015  41.2741703  58.1297842  59.0451141  41.1092380  58.2754481
  63.4860924  45.4436100  50.2759491  63.2395639  45.3631851  51.1096280
  63.8146047  44.6589568  50.0822019  63.4982168  45.3162366  50.3707014
  67.3808973  52.1519460  54.0646273  67.2423332  52.8500506  54.5695015
  66.6008971  51.9968116  53.7082454  67.2452200  52.2319626  54.0872547
  65.7187058  48.4515835  60.3168654  65.7135097  47.5795652  60.3211081
  66.4248052  48.6504004  59.8438110  65.8232062  48.3519709  60.2475690
  59.4457952  48.1792819  59.6882474  59.5901327  48.7594027  59.0525584
  59.7933600  48.5569116  60.3932329  59.5185413  48.3213523  59.6981469
  61.6177869  47.3782987  57.4707606  60.8701183  47.5714002  57.0655884
  61.7719394  46.5528207  57.2331727  61.5300297  47.2848099  57.3753012
  58.5185707  56.3695591  56.5543501  58.6675270  55.8098507  55.9016906
  59.2985709  56.4487593  56.9376020  58.6559800  56.2981156  56.5140450
  68.8762346  51.5097714  44.8262772  68.4969155  50.7234851  44.8192061
  68.2128591  52.0584571  44.6834416  68.7220821  51.4742538  44.8043569
  61.0439007  56.5410234  57.8327992  60.9682678  55.8719044  58.3878780
  60.9728866  57.2428022  58.3468658  61.0219614  56.5455141  57.9904840
  61.8579646  41.2733538  58.3603010  62.3152260  42.0057512  58.4875802
  61.9335975  40.8500003  59.1190266  61.9370616  41.3190776  58.4904086
  66.3306972  34.4523413  52.2296853  66.4490540  34.9099877  51.4964155
  66.1569148  33.6468675  51.9433070  66.3226143  34.4017185  52.0797786
  61.7009254  55.0611233  48.6651598  62.4659145  54.7920876  48.3434262
  61.5987344  54.5761243  49.3821661  61.7990750  54.9500797  48.7231426
  59.7362024  43.2635642  55.2044834  58.9458099  43.0827102  55.5262170
  60.1322647  42.4862595  55.1875128  59.6778900  43.1223103  55.2497382
  64.2227915  52.0923416  40.6451547  64.9900900  52.1523541  40.2357399
  63.7759224  51.5203858  40.1607866  64.2701342  52.0159992  40.5129258
  65.1205710  50.8978072  52.9304280  64.4450712  50.6663304  53.4317667
  65.1298086  50.2899255  52.3046385  65.0224215  50.7736997  52.9120432
  62.2499854  45.7395901  59.6868333  62.1858995  46.6005858  59.5588469
  62.3897042  45.4227894  58.8863884  62.2615324  45.8196068  59.5496546
  67.1222445  53.7543205  45.1614458  67.2042282  54.5610191  44.8375909
  67.6072187  53.7739164  45.8855231  67.2059603  53.8763867  45.2201356
  60.9318948  48.4328040  53.8284536  60.5081197  48.6332540  53.0923554
  60.7563803  47.5856888  53.9408835  60.8429829  48.3376822  53.7358226
  60.4330641  59.9478553  56.2905993  60.9226572  59.2489343  56.1081658
  59.8614874  59.6502423  56.8782050  60.4215171  59.8004777  56.3507034
  66.6297645  52.5140623  65.2432784  67.4432510  52.2425772  65.4037916
  66.4692611  52.2148163  64.4392979  66.7267593  52.4295549  65.1478189
  60.9266987  53.6955327  45.4145899  60.9959808  52.8369866  45.5538900
  61.7055442  53.9127208  45.0864924  61.0519837  53.6008191  45.3863057
  63.9069807  43.1974280  58.1828172  64.1211777  42.5585194  57.6291526
  63.2903706  43.6420104  57.7536034  63.8475136  43.1684424  58.0378603
  65.3174475  56.1193028  49.6282393  64.9254267  55.8159743  48.9105259
  65.4727547  56.9562118  49.4387347  65.2828065  56.1976865  49.4938890
  66.0708895  44.8063345  59.1211479  65.2585577  44.4989236  59.2024652
  66.5298830  44.3262345  59.6854191  66.0189280  44.6899838  59.2166073
  65.4814150  52.6843017  49.5688423  65.1228804  52.8557660  50.3452456
  64.9952860  53.1456223  49.0116422  65.3572847  52.7781988  49.6013692
  63.2984536  36.3074216  53.1715515  62.4278094  36.2812937  53.1248824
  63.5524877  36.1351408  52.3541360  63.2078096  36.2784359  53.0435651
  63.1662403  46.2123417  63.9040181  63.6362034  46.8365533  64.2908055
  63.2124283  45.5440392  64.4633396  63.2430278  46.2058097  64.0440253
  60.3233676  38.3180444  54.6288985  59.8072165  37.6260636  54.7540564
  59.7627605  38.9851221  54.5751584  60.1640189  38.3143702  54.6395051
  62.3925910  38.8573404  56.4581838  62.0057663  38.8822436  57.2395367
  61.9058847  38.2915083  56.0056354  62.2638419  38.7769155  56.5069741
  66.6418889  53.5746913  60.5155624  67.2798610  53.0807109  60.1818080
  65.9992981  53.5024314  59.9307851  66.6413116  53.4905922  60.3797979
  68.3675889  45.4236059  55.0821540  67.9403497  45.3362408  54.3269639
  67.7301942  45.5313835  55.6676384  68.2105496  45.4268719  55.0566981
  62.0583051  35.7440390  58.7492097  62.6876169  36.2800690  58.4713168
  62.2268914  35.6517749  59.6005663  62.1760846  35.8101752  58.8340626
  61.8596966  40.5311584  61.0218509  62.6870396  40.2596733  61.0777124
  61.8804812  41.3272426  61.3782327  61.9849816  40.6091339  61.0833692
  66.6973146  54.2666721  57.1560981  67.4865524  53.9155786  57.2763063
  66.8716743  55.0803110  56.8937615  66.8393427  54.3352579  57.1348849
  56.4366456  47.6775447  54.2088770  55.5954463  47.5779321  54.4167664
  56.6456464  48.4470927  54.5603090  56.3431149  47.7767490  54.2916085
  65.5506970  38.2776278  51.7177399  65.7556563  38.2098586  52.5634396
  65.2233394  39.0835099  51.6498577  65.5322218  38.3862219  51.8337054
  60.2483121  45.6056846  53.4586367  59.9446258  45.0512835  54.0596775
  59.5462542  45.7849056  52.9714401  60.0999331  45.5501629  53.4756073
  58.3101472  52.8206567  58.1658465  58.2021827  52.8308629  59.0320523
  58.5197253  53.6461347  57.9763419  58.3251583  52.9447642  58.2662557
  68.8040658  38.8308042  51.1980165  68.1914971  39.3178445  51.5833897
  68.9004832  38.1551533  51.7417816  68.7278555  38.8026351  51.3359023
  56.3275264  50.0719209  55.6280403  55.7363197  50.7128708  55.5983418
  57.0896287  50.4956827  55.6011702  56.3523525  50.2295048  55.6195550
  56.7235887  41.2321207  56.2948420  57.1837368  41.3060137  57.0323544
  56.7691993  42.0302461  55.9448242  56.7986442  41.3615354  56.3521177
  58.3719236  41.8987902  60.8620447  57.9804802  41.2521249  61.2976225
  58.5405099  42.4899337  61.4814703  58.3390147  41.8902170  61.0183153
  72.4465685  49.9024979  56.6257681  72.5048809  50.3511628  57.3717657
  71.8132153  50.3123792  56.1887761  72.3616981  50.0298714  56.6710229
  66.0864780  55.5228521  53.0612427  65.8884469  56.0119336  52.3668638
  65.4652491  55.7269763  53.6396560  65.9652345  55.6245059  53.0435650
  62.0652334  39.0863677  52.4354533  61.2188379  39.2586485  52.3095883
  62.0623466  38.2813021  52.7720361  61.9399484  38.9924706  52.4665660
  63.1350634  42.8638891  53.3016591  62.6610589  42.3380653  53.8121902
  63.5068770  42.3168364  52.7331452  63.1200523  42.7054888  53.2931738
  69.3987365  47.9241267  54.7123371  69.1585588  47.0847682  54.7165798
  69.8779372  48.0041434  55.4364145  69.4339549  47.8122667  54.8198174
  65.0634134  43.7575446  46.3642345  64.5357153  43.8404190  45.6748053
  65.5229842  44.4993317  46.3606989  65.0535984  43.8796108  46.2617040
  71.3992552  44.7042724  52.6652630  71.1602322  44.6638558  51.8273415
  71.5626453  45.5513876  52.7918351  71.3882855  44.8234809  52.5606112
  68.0038582  49.0892673  58.5957675  68.7272781  48.6365200  58.4168695
  67.7388544  49.3697339  57.8130003  68.0719855  49.0643642  58.4536391
  64.6171217  52.3279009  45.4952002  65.3405415  52.7937122  45.3516575
  64.1771808  52.3952619  44.7449599  64.6586909  52.4062846  45.3636783
  63.7857372  49.1876552  56.7452691  63.1714365  48.6434602  57.0401326
  64.3024657  48.6740788  56.2658507  63.7713034  49.0312961  56.7176919
  63.0253669  50.2580822  54.4796989  62.5981277  49.6330540  54.0462425
  63.0178613  49.9755743  55.3055996  62.9612810  50.1233602  54.5376817
  64.0836499  37.4607230  58.1036213  63.5877060  37.6570904  57.4127779
  64.8405561  37.8599899  57.9325014  64.1223324  37.5484964  57.9756349
  61.3539378  41.1349576  54.6939523  61.3781866  40.6009688  54.0052303
  61.6050852  40.6266885  55.3565114  61.3949297  40.9810480  54.6904168
  57.6340701  39.8620394  54.0745267  57.6739072  40.3629601  54.7879975
  56.8090365  39.9530788  53.8051191  57.5180227  39.9502211  54.1395806
  59.8170314  49.4281134  62.1765562  58.9665944  49.5652849  62.3123207
  59.9798441  48.6944913  62.6213264  59.7154177  49.3395236  62.2621161
  59.0555064  46.3780904  56.3719167  58.2246994  46.5454722  56.1654415
  59.0006581  46.0016855  57.1568052  58.9244479  46.3470636  56.4567695
  56.8638847  39.8689797  62.0075577  57.4891551  39.3251930  62.2805009
  56.4089327  39.3884715  61.4383368  56.8887108  39.7179278  61.9637171
  70.4373896  48.0519084  57.0988225  71.0291736  48.6916335  57.1306423
  70.8732891  47.3542121  57.3880292  70.5892327  48.0437435  57.1469058
  62.2667286  52.4736457  57.7246119  61.7592377  53.0272303  58.1686750
  61.9693932  52.5344746  56.9064894  62.1472171  52.5642768  57.6694576
  64.4329468  40.8389776  56.5670782  64.8584540  40.3862303  55.9554309
  63.8186461  40.2849847  56.8435570  64.4058113  40.6903752  56.5175807
  64.8775066  56.3899714  45.6550063  64.1604376  56.2160576  45.1897300
  65.5281804  56.1552287  45.1225549  64.8676917  56.3295507  45.5079281
  62.8723691  37.3104876  49.9761359  62.2292009  37.1602522  50.5446498
  62.5323098  37.0647221  49.2110464  62.7268768  37.2516998  49.9464374
  67.4623037  45.2664303  49.3991368  66.7914227  45.8094005  49.2704433
  68.1562788  45.7359158  49.1573063  67.4651905  45.4162574  49.3446895
  61.5109771  57.4061015  54.6303126  61.2875426  56.6479844  54.9987152
  61.0219614  57.4359036  53.9083566  61.4053220  57.2983239  54.5779867
  67.6251165  41.7220186  52.3081741  67.9778775  41.2949909  52.9827540
  66.7665966  41.6371030  52.4382817  67.5500610  41.6464927  52.4276751
  65.6234431  44.9855555  56.2566583  65.6032358  44.8038850  57.1101362
  65.6713631  45.8567574  56.2326167  65.6269072  45.0872093  56.3789878
  63.5680761  51.5742747  62.1815060  63.5276615  50.9292424  61.5960216
  64.3804079  51.5179364  62.4940472  63.6823914  51.4701714  62.1412009
  60.1588228  57.6261473  52.0840211  59.7448627  56.9635603  51.6944052
  60.8435602  57.7739332  51.5635905  60.1986600  57.5502131  51.9496708
  63.5253522  56.7851558  52.8363827  63.1269805  56.8953829  52.0684647
  62.9104742  56.9933624  53.4190387  63.3752412  56.8325126  52.8095127
  69.0575225  36.8438598  53.2366053  68.5506090  36.1367738  53.1687231
  69.8542659  36.5131787  53.3667130  69.1002464  36.6911750  53.2465048
  64.9739241  43.3505210  49.1339717  64.7452934  43.3737912  48.2918075
  65.2337317  42.5262678  49.2534728  64.9785429  43.2321290  49.0264915
  59.2558469  45.2039684  58.7364817  58.7437372  44.5960867  59.0949849
  59.0837965  45.9196276  59.2038793  59.1548106  45.2202983  58.8581041
  54.1024184  43.6477259  61.3867179  53.9326774  44.3078634  60.8415386
  53.6590134  43.8583820  62.1079668  54.0123518  43.7763241  61.4128809
  71.2595365  51.3603525  46.2206918  71.6428971  52.1094881  46.4505015
  70.4639478  51.6069345  45.9618907  71.1989147  51.5073219  46.2164491
  63.1327540  43.1263928  61.1767073  63.6898970  42.8977738  60.5445538
  62.8088605  43.8869594  60.9002285  63.1673950  43.2047765  61.0423570
  60.8510657  46.2131581  62.1419080  61.6021984  46.5283258  62.4558634
  61.0433233  46.0110752  61.3153002  60.9902071  46.2298963  62.0662476
  67.6995947  42.3405148  49.3842875  67.6990173  42.1853804  50.2427152
  67.4952127  43.1868135  49.3284261  67.6695725  42.4425769  49.5030815
  65.4236799  47.0202650  53.0379082  65.9190464  46.3025645  52.9983103
  64.6136575  46.7173447  52.9233569  65.3780692  46.8700296  53.0152808
  67.4888618  49.7706337  55.7256211  67.9143689  49.2480759  55.1726636
  67.1245538  50.3687175  55.2044834  67.4975220  49.7816564  55.5665221
  57.1242698  58.0670555  54.4853557  57.4389257  58.8806943  54.4931338
  57.5336111  57.6820773  55.1535716  57.2310796  58.1299257  54.5857648
  64.0767217  53.4840601  52.0557369  64.5478396  54.1980864  52.2247354
  64.4127396  52.8839352  52.5917238  64.1962332  53.5012066  52.1589744
  66.1644202  55.0941915  64.2349441  66.2741167  54.3050475  64.5906188
  66.4935099  55.0047851  63.4323779  66.2296608  54.9647768  64.1691831
  60.9936712  38.2568072  59.0115463  61.1264618  37.4599065  59.3396439
  61.3781865  38.7834475  59.5913739  61.0693041  38.2167989  59.1458966
  64.7141164  53.2758536  58.8185061  64.1662110  52.6516419  58.5505127
  65.1754192  53.4652808  58.1029141  64.7008373  53.2117586  58.6735492
  64.0669067  35.1798398  55.6096557  63.2615031  35.0696128  55.9264395
  63.9375803  35.2810854  54.7526422  63.9289200  35.1782068  55.5304597
  67.5235028  41.3443890  56.2036254  66.9398017  41.8453096  55.7913821
  67.8439322  40.8373446  55.5700577  67.4848203  41.3435725  56.0494761
  58.6525159  38.2527247  57.2593357  59.1969572  37.9118374  57.8497699
  58.7062095  39.1112709  57.4014642  58.7414279  38.3282506  57.3675230
  54.4655718  52.0143663  54.1332165  55.0700575  51.9739497  53.5045986
  54.2583030  52.8614815  54.1636221  54.5244615  52.1331666  54.0448282
  64.2799490  54.2809608  55.3494402  65.0997864  54.1372574  55.6110698
  63.9993568  54.9055807  55.8910840  64.3596233  54.3519960  55.4682342
  73.9512825  61.0250111  53.0690209  73.0950721  61.1858609  53.1199326
  73.9980479  60.1542175  53.0895270  73.8311937  60.9200913  53.0796275
  68.3353965  70.5612829  48.8327441  67.5836864  70.1828367  48.6043486
  68.7839977  70.5931262  48.0846251  68.2903632  70.5098436  48.6884943
  76.7964646  63.0842155  55.7121861  77.3420606  63.7627241  55.7715831
  76.7381523  62.9429616  54.8523442  76.8680561  63.1634157  55.5933921
  69.9138721  70.5731221  51.0990213  70.0149084  69.7631575  51.4087341
  69.3180466  70.4788167  50.4689892  69.8411260  70.4396249  51.0516452
  63.1103765  66.5951508  50.7242547  62.8753950  65.7619160  50.6174816
  63.2489406  66.8756173  49.9103748  63.0959428  66.5135011  50.5884902
  65.4093853  58.7637238  53.6226855  64.7898884  58.1729885  53.4536869
  65.3077716  59.3548673  52.9891178  65.3031528  58.7641321  53.5031844
  70.4560040  68.5020785  47.8724931  70.7775881  69.0425992  47.2686239
  71.1032137  67.9317556  48.0047221  70.5986096  68.4979960  47.8031966
  72.5061748  60.5036780  47.9559318  73.2041913  60.6824907  48.4480781
  72.8214081  59.9807119  47.3329707  72.6557086  60.4530552  47.9361328
  65.1362986  62.3089520  55.8670424  65.0121683  62.8951965  56.5020242
  65.7881270  61.8149716  56.1682699  65.2136635  62.3228324  56.0056353
  72.6949684  66.8907225  47.9439109  73.1343319  66.2824325  48.3893882
  72.5454347  66.5114598  47.1724574  72.7371150  66.7445696  47.8958277
  70.1621327  65.4851237  55.1457935  70.8070329  64.9923680  54.8268883
  70.4023104  65.6276023  55.9724013  70.2931912  65.4328679  55.2207468
  72.7007418  68.3306143  54.7964827  72.9830661  67.5357548  54.5751583
  73.4293579  68.8086730  54.8169888  72.8496982  68.2840740  54.7667842
  70.6788612  55.8729177  52.0380592  70.3491942  56.3240320  51.3684291
  70.0033614  55.7945340  52.5853599  70.5299048  55.9280312  52.0203816
  76.2959020  65.2434406  44.8969878  76.2110316  66.0995373  45.0419447
  76.7843404  64.9678730  45.5652038  76.3547918  65.3291728  45.0171960
  77.8865020  51.8614699  50.2830203  77.5718461  52.5518178  50.7150625
  77.3691962  51.8059482  49.5815704  77.7629490  51.9549588  50.2427152
  77.2277454  61.8619200  46.3967614  76.6988925  62.0778834  47.0564920
  77.7502474  62.5555339  46.3168583  77.2265907  61.9962337  46.4823213
  69.1177061  65.7582417  45.1975082  68.5334277  66.2632449  45.6040945
  68.7147157  65.5324804  44.4571674  68.9716365  65.7990665  45.1480107
  64.6721090  71.4737178  51.9998753  64.1888668  72.1987668  51.9758337
  65.4844408  71.7713308  52.1108911  64.7211838  71.6239532  52.0126032
  70.7435244  70.2669359  54.6048568  70.2262186  69.9076774  54.0009876
  71.4409635  69.7431533  54.6154634  70.7700825  70.1367047  54.5178826
  73.5754276  62.0048069  43.6744002  73.8150280  62.2126053  42.8619345
  73.8970117  61.2005578  43.7832947  73.6591434  61.9162170  43.5704555
  68.8844566  53.9341465  47.5203540  69.6390534  54.3019782  47.2820590
  68.7072101  54.3081019  48.2882720  68.9699045  54.0439653  47.5988429
  67.5265287  71.9893354  52.1519033  68.2285867  71.4745343  52.2091789
  67.4462770  72.3167506  52.9565908  67.6189048  71.9607580  52.2791825
  68.5744194  62.2268941  61.2799448  68.7464698  62.1174836  62.1284729
  69.1113551  62.8723347  61.0430640  68.6789198  62.3060943  61.3704545
  67.2401631  56.3411784  44.2181653  67.0577204  56.5583665  43.3922646
  68.1027244  56.4550797  44.2740267  67.3406220  56.3901682  44.1036140
  66.8516063  68.1799706  51.6604641  67.6904962  68.4122639  51.7078403
  66.8827832  67.3104018  51.5911676  66.9797780  68.0856653  51.6569286
  67.4768766  68.6000581  55.9617946  68.0166991  68.4571712  56.6321319
  66.7938712  68.9997332  56.3301973  67.4560920  68.6380252  56.1152368
  72.9201350  53.3438195  47.2530677  73.6487510  53.1654150  46.8068833
  73.0096243  54.1856274  47.4637855  73.0408012  53.4422073  47.2184195
  76.9009651  64.2791582  51.1562971  77.6567166  64.7123096  51.1951880
  77.0071975  63.6296352  51.7297607  77.0279821  64.2469066  51.2460996
  62.8805911  64.8200872  56.1152368  62.6144326  64.0039989  56.2743358
  62.8944475  64.8654028  55.2447884  62.8430633  64.7057777  56.0105850
  66.7863658  59.6185957  42.7304126  66.0721835  59.3324136  43.1426559
  67.2707627  59.9582582  43.3710514  66.7523021  59.6267606  42.8859761
  67.6304517  58.3579250  58.7619376  66.9376314  57.8876230  59.0080107
  68.2464845  58.1317555  59.3361083  67.6189047  58.2546382  58.8828528
  73.9610976  68.1215911  43.1065934  74.3762124  67.7900934  42.4150430
  73.1302905  67.8884813  42.9786071  73.8998984  68.0387167  42.9856782
  63.2899324  65.6059652  53.3964112  63.1074898  65.5806538  52.5436404
  64.0248993  66.0758589  53.4353021  63.3713388  65.6721014  53.2762031
  66.3545076  62.3244654  59.9046221  67.0785048  62.3097685  60.3911116
  66.4561213  63.0340010  59.4068189  66.4763285  62.4269358  59.9025008
  76.4021345  62.5277730  49.0590184  76.4968199  63.2667024  49.5129809
  75.7780188  62.0995206  49.4924748  76.3230375  62.5739051  49.1898331
  63.2570235  62.4853152  53.5463179  63.8343737  62.3489603  54.1855424
  62.5584297  62.0288936  53.8008763  63.2391256  62.3975418  53.6785469
  76.6544366  64.3726470  42.2927136  76.5724528  64.4428657  43.1582123
  77.2924086  64.9356214  42.1010876  76.7364203  64.4665441  42.3917085
  70.0137537  64.1387208  51.7601662  69.7556781  63.3058943  51.7332962
  70.0686020  64.3644821  50.9194162  69.9837315  64.0484979  51.6321799
  75.0938587  56.2415659  51.8605755  74.3894914  55.7524844  52.0189674
  75.1423561  56.2538133  50.9894199  74.9968639  56.1705307  51.7545095
  68.9872249  61.6924970  52.2466557  68.4121840  61.8517139  52.8830518
  68.6107925  61.0560380  51.7835007  68.8475062  61.6222783  52.2721115
  72.6545538  60.1648320  57.1058935  72.2659971  59.7402537  56.4511126
  71.9900236  60.4130469  57.6135962  72.4992466  60.1387041  57.0846803
  76.4771899  53.8622948  54.6182919  76.8582411  53.1801120  55.0050794
  75.6735184  53.5732551  54.4358584  76.4148361  53.7189997  54.6486975
  73.7584476  64.3946924  45.3035742  74.5725115  64.6861817  45.1918514
  73.6943617  63.7406787  44.7294035  73.8687215  64.3412119  45.2024580
  69.6292384  67.8668442  50.4308054  70.2666331  67.6280189  50.9759848
  70.0547456  68.0705601  49.6961215  69.7868551  67.8619452  50.4025212
  64.3205027  70.1056778  54.3142358  64.3609172  70.3771629  53.4862138
  64.8799551  70.6298686  54.7300146  64.4088373  70.2232533  54.2534246
  70.2695199  63.0870732  44.7682944  70.6540352  62.8678438  45.5199489
  70.0206820  63.9133677  44.8984020  70.2897272  63.1768878  44.8984020
  70.4363740  56.3677147  64.4845528  70.1217181  57.1376709  64.2215091
  70.1153672  55.8047403  63.8997755  70.3422659  56.3987415  64.3586878
  72.0113856  68.3440864  52.1101841  72.0852865  68.1816036  52.9643690
  72.8283363  68.5331054  51.8662322  72.1430215  68.3477607  52.1999866
  65.7719613  68.6898727  49.1396284  64.9457731  68.9360464  49.0130563
  65.8331604  68.6110808  50.0058342  65.6593780  68.7143676  49.2485229
  67.9895637  54.7567668  50.0991724  67.1218062  54.8290268  50.1649333
  68.2770841  55.5589747  50.2879699  67.9035385  54.8861815  50.1366491
  77.1128525  54.9045528  58.4303046  77.8582117  54.7155338  58.0166471
  76.6965830  55.4303766  57.8716902  77.1613500  54.9547673  58.2867619
  70.5518442  71.3075607  46.8415314  70.8416740  70.9164589  46.1174541
  71.2821923  71.4892312  47.2820589  70.7025326  71.2769421  46.7998121
  71.1413187  66.1093353  57.9268444  70.6424881  66.8209121  58.0053333
  71.9513411  66.4294020  57.8886607  71.1869294  66.2620202  57.9325013
  68.4924358  73.2842990  49.9075464  68.2724653  72.9940345  50.7002131
  68.2718880  72.6257945  49.3793376  68.4271952  73.1442698  49.9464372
  67.4041305  65.3716306  52.1731165  67.1154553  64.7453778  52.7076893
  68.2724653  65.3136594  52.2395846  67.4901557  65.2703851  52.2622120
  78.1919203  60.5151090  52.4913147  77.8483968  59.7941425  52.8420397
  78.2912245  60.3064941  51.6491505  78.1561245  60.3775293  52.4184827
  67.6073578  67.0111557  48.0973530  68.3619546  67.3924596  48.3108993
  67.0144191  67.4622701  48.5520227  67.6310292  67.1340385  48.1956409
  70.0680245  58.9674398  63.2230743  69.2580021  59.2732177  63.1120585
  70.5454932  59.6879980  63.3383327  70.0183724  59.1188999  63.2237814
  68.9271805  68.1820119  53.4713646  68.4052558  68.3220410  54.1565510
  69.3145825  67.4230783  53.6615763  68.9075506  68.0905643  53.6014722
  65.9162989  58.2325927  47.5408600  65.6287785  57.8627198  46.8040548
  66.6033457  58.7020783  47.2792305  65.9751886  58.2472897  47.3923676
  70.3538130  65.2124138  48.8695137  70.1580913  65.8198872  48.2755440
  70.5772476  64.5192082  48.3886811  70.3572771  65.2001663  48.7111218
  68.7516660  62.0978876  48.9876005  69.4739312  62.2620034  48.5279811
  68.2724653  62.8188541  48.8815345  68.7880391  62.2277105  48.9041619
  76.7110168  58.4342674  54.3672690  75.8721269  58.4603953  54.1310953
  76.7814535  59.0813410  54.9478037  76.5978561  58.5338800  54.4181807
  66.4024277  64.5036948  58.0930145  66.9145374  64.7821201  57.4438905
  66.1160620  65.2426242  58.4592958  66.4359140  64.6539302  58.0520023
  75.1579446  55.3328052  49.1000306  75.8605799  55.1335800  48.6220264
  74.8923635  54.5603994  49.4069150  75.2226079  55.1891018  49.0745748
  63.4891183  59.0107140  48.3893882  63.5907320  59.8133301  48.7174857
  64.2847070  58.8094476  48.0916962  63.6219089  59.0993039  48.3929237
  69.9208002  56.5963337  58.1531187  69.7291199  56.6118471  59.0030610
  70.7706598  56.7927011  58.1297842  70.0183724  56.6277688  58.2754481
  64.3054915  59.1254318  56.1315003  64.1640407  58.2738259  56.2559511
  64.5895479  59.1682979  55.3077209  64.3262762  59.0054068  56.0282627
  74.4593508  60.9621408  50.2759491  74.2128222  60.8817159  51.1096280
  74.7878631  60.1774876  50.0822019  74.4714751  60.8347674  50.3707014
  70.4190535  63.6978127  59.6882474  70.5633911  64.2779335  59.0525584
  70.7666184  64.0754424  60.3932329  70.4917996  63.8398831  59.6981469
  72.5910452  62.8968295  57.4707606  71.8433767  63.0899310  57.0655884
  72.7451978  62.0713515  57.2331727  72.5032880  62.8033407  57.3753012
  72.8312230  56.7918846  58.3603010  73.2884844  57.5242820  58.4875802
  72.9068558  56.3685311  59.1190266  72.9103199  56.8376084  58.4904086
  65.0745221  57.0384666  59.4492453  64.5387410  56.4265024  59.7653221
  65.1362985  57.6132802  60.1026120  65.0040853  57.0331594  59.5927880
  77.3039555  49.9708721  52.2296853  77.4223124  50.4285185  51.4964155
  77.1301731  49.1653982  51.9433070  77.2958726  49.9202493  52.0797786
  72.6741838  70.5796541  48.6651598  73.4391729  70.3106184  48.3434262
  72.5719928  70.0946551  49.3821661  72.7723333  70.4686105  48.7231426
  70.7094607  58.7820950  55.2044834  69.9190682  58.6012410  55.5262170
  71.1055230  58.0047903  55.1875128  70.6511484  58.6408411  55.2497382
  75.1960498  67.6108724  40.6451547  75.9633483  67.6708849  40.2357399
  74.7491807  67.0389166  40.1607866  75.2433925  67.5345300  40.5129258
  76.0938294  66.4163380  52.9304280  75.4183296  66.1848612  53.4317667
  76.1030670  65.8084563  52.3046385  75.9956798  66.2922305  52.9120432
  73.2232438  61.2581209  59.6868333  73.1591579  62.1191166  59.5588469
  73.3629625  60.9413202  58.8863884  73.2347908  61.3381376  59.5496546
  71.9051532  63.9513348  53.8284536  71.4813781  64.1517847  53.0923554
  71.7296387  63.1042196  53.9408835  71.8162412  63.8562130  53.7358226
  67.1933977  64.4465400  49.2612508  67.3498596  64.3812203  50.1168500
  67.5334570  65.2213952  49.0491188  67.2667211  64.5514598  49.3567102
  73.7313121  63.8223283  48.1305871  74.2728667  63.3193665  48.5944492
  74.0459680  63.7688478  47.3195357  73.8577518  63.7402704  48.0789683
  71.8999571  69.2140635  45.4145899  71.9692391  68.3555173  45.5538900
  72.6788026  69.4312516  45.0864924  72.0252421  69.1193499  45.3863057
  74.8802391  58.7159588  58.1828172  75.0944360  58.0770502  57.6291526
  74.2636290  59.1605412  57.7536034  74.8207720  58.6869732  58.0378603
  63.7668238  61.6300350  49.5773275  64.1467203  62.0484895  48.9133543
  63.1923603  62.2113806  49.8842119  63.7379563  61.7778209  49.5250016
  77.0441479  60.3248653  59.1211479  76.2318160  60.0174544  59.2024652
  77.5031413  59.8447653  59.6854191  76.9921863  60.2085146  59.2166073
  76.4546733  68.2028325  49.5688423  76.0961388  68.3742968  50.3452456
  75.9685444  68.6641531  49.0116422  76.3305430  68.2967296  49.6013692
  74.2717119  51.8259524  53.1715515  73.4010677  51.7998245  53.1248824
  74.5257460  51.6536716  52.3541360  74.1810679  51.7969667  53.0435651
  71.2435099  63.8827491  42.1088658  71.5327623  64.6592373  42.3832232
  71.3306897  63.3716222  42.8103157  71.2989355  63.9219409  42.2531155
  71.2966260  53.8365752  54.6288985  70.7804748  53.1445944  54.7540564
  70.7360189  54.5036529  54.5751584  71.1372773  53.8329010  54.6395051
  73.3658493  54.3758712  56.4581838  72.9790246  54.4007744  57.2395367
  72.8791430  53.8100391  56.0056354  73.2371002  54.2954463  56.5069741
  73.0315635  51.2625698  58.7492097  73.6608753  51.7985998  58.4713168
  73.2001498  51.1703057  59.6005663  73.1493429  51.3287060  58.8340626
  72.8329550  56.0496892  61.0218509  73.6602979  55.7782041  61.0777124
  72.8537396  56.8457734  61.3782327  72.9582400  56.1276647  61.0833692
  67.4099040  63.1960755  54.2088770  66.5687046  63.0964629  54.4167664
  67.6189048  63.9656235  54.5603090  67.3163732  63.2952798  54.2916085
  64.8874607  60.8180292  52.0373520  64.4931304  60.8923304  51.2623630
  64.3314723  61.2038238  52.5881882  64.7477419  60.8862067  52.0041180
  76.5239553  53.7961586  51.7177399  76.7289147  53.7283894  52.5634396
  76.1965977  54.6020407  51.6498577  76.5054801  53.9047526  51.8337054
  71.2215704  61.1242154  53.4586367  70.9178842  60.5698143  54.0596775
  70.5195125  61.3034364  52.9714401  71.0731914  61.0686937  53.4756073
  70.2781802  58.4342674  48.0231069  70.5541536  57.7161587  47.6108637
  70.8780471  59.0327594  47.8152175  70.4075066  58.4163045  47.9311830
  69.2834055  68.3391875  58.1658465  69.1754410  68.3493937  59.0320523
  69.4929837  69.1646655  57.9763419  69.2984167  68.4632950  58.2662557
  73.7792322  56.1056191  46.2977664  74.2336069  56.2766752  47.0225509
  74.2532368  55.4924302  45.8975440  73.9160642  56.0407077  46.3451426
  67.3007847  65.5904517  55.6280403  66.7095781  66.2314016  55.5983418
  68.0628871  66.0142135  55.6011702  67.3256108  65.7480356  55.6195550
  67.6968470  56.7506515  56.2948420  68.1569952  56.8245445  57.0323544
  67.7424577  57.5487769  55.9448242  67.7719026  56.8800662  56.3521177
  69.3451820  57.4173210  60.8620447  68.9537385  56.7706557  61.2976225
  69.5137683  58.0084645  61.4814703  69.3122730  57.4087478  61.0183153
  71.1205342  62.8098726  47.4022671  71.8647387  63.1973002  47.6405621
  71.2666038  61.9656151  47.5663159  71.2515927  62.7429199  47.4616641
  73.0384918  54.6048985  52.4354533  72.1920963  54.7771792  52.3095883
  73.0356050  53.7998328  52.7720361  72.9132067  54.5110014  52.4665660
  74.1083218  58.3824199  53.3016591  73.6343172  57.8565961  53.8121902
  74.4801354  57.8353672  52.7331452  74.0933107  58.2240196  53.2931738
  64.4856248  60.3795706  58.6700136  65.3481861  60.2791415  58.5837466
  64.1548031  59.7990415  58.1085709  64.5641444  60.2787333  58.5745542
  76.0366718  59.2760754  46.3642345  75.5089736  59.3589498  45.6748053
  76.4962426  60.0178625  46.3606989  76.0268568  59.3981416  46.2617040
  67.8458034  59.2038155  55.3310555  67.2211104  59.2156547  54.7236507
  67.5103629  59.6798330  55.9801795  67.7043526  59.2756672  55.3367123
  68.0299783  57.5463273  41.3883240  67.6812587  58.1982999  41.8514789
  67.5496229  57.5320386  40.6607111  67.9070027  57.6406327  41.3494331
  64.5583710  67.2638615  56.7714319  64.0283634  66.5731054  56.8209294
  64.8308803  67.2548800  55.9427027  64.5208432  67.1605747  56.6561735
  75.5903800  67.8464317  45.4952002  76.3137999  68.3122430  45.3516575
  75.1504391  67.9137927  44.7449599  75.6319492  67.9248154  45.3636783
  74.7589955  64.7061860  56.7452691  74.1446948  64.1619910  57.0401326
  75.2757240  64.1926096  56.2658507  74.7445618  64.5498269  56.7176919
  73.9986252  65.7766130  54.4796989  73.5713860  65.1515848  54.0462425
  73.9911197  65.4941051  55.3055996  73.9345394  65.6418910  54.5376817
  67.1148779  60.8131303  57.5485423  67.2742266  60.0574627  57.9537145
  66.9341673  61.3622242  58.2026161  67.1114138  60.7825116  57.7048129
  75.0569082  52.9792538  58.1036213  74.5609644  53.1756212  57.4127779
  75.8138144  53.3785206  57.9325014  75.0955907  53.0670272  57.9756349
  72.3271962  56.6534884  54.6939523  72.3514449  56.1194996  54.0052303
  72.5783436  56.1452193  55.3565114  72.3681881  56.4995788  54.6904168
  59.8379552  63.9366379  54.1282667  59.7323001  63.8913223  53.2634751
  59.0879772  64.2820160  54.4096952  59.7115155  63.9807287  54.0419997
  68.6073284  55.3805702  54.0745267  68.6471656  55.8814909  54.7879975
  67.7822949  55.4716096  53.8051191  68.4912810  55.4687519  54.1395806
  70.0287648  61.8966212  56.3719167  69.1979577  62.0640030  56.1654415
  69.9739165  61.5202163  57.1568052  69.8977063  61.8655943  56.4567695
  67.8371431  55.3875105  62.0075577  68.4624134  54.8437238  62.2805009
  67.3821911  54.9070023  61.4383368  67.8619692  55.2364586  61.9637171
  68.4023691  60.1721804  46.9009284  68.5426653  60.6694268  47.6037926
  68.9006224  59.4708098  47.0423498  68.4964772  60.1423782  47.0260863
  68.4323914  61.0388915  44.2301861  69.0668993  61.6349340  44.1651323
  68.5149525  60.7392372  45.0447731  68.5380465  61.0829823  44.3404948
  70.0102897  56.9702890  44.2047303  70.3318738  56.4905973  43.5506565
  70.2729840  57.7802536  44.0138115  70.0968922  57.0192788  44.0802795
  75.4062052  56.3575084  56.5670782  75.8317123  55.9047611  55.9554309
  74.7919045  55.8035155  56.8435570  75.3790697  56.2089060  56.5175807
  64.9376902  63.2356755  47.4991407  65.4469131  63.8321263  47.8802713
  65.4111174  62.9682729  46.8167827  65.0820277  63.2842571  47.4545930
  73.8456275  52.8290184  49.9761359  73.2024592  52.6787830  50.5446498
  73.5055682  52.5832529  49.2110464  73.7001352  52.7702306  49.9464374
  67.2967433  59.8713014  50.3664587  66.5779423  60.2877147  50.6337451
  67.6679796  60.4367253  49.8156226  67.2459365  60.0162295  50.3247394
  76.5967014  60.5040863  56.2566583  76.5764942  60.3224158  57.1101362
  76.6446215  61.3752881  56.2326167  76.6001655  60.6057401  56.3789878
  73.0714008  58.9111014  45.7037967  72.4778847  59.2328010  45.1522534
  73.1089286  58.0652109  45.4959073  72.9888397  58.8335342  45.5920738
  75.9471824  58.8690518  49.1339717  75.7185517  58.8923220  48.2918075
  76.2069901  58.0447985  49.2534728  75.9518012  58.7506598  49.0264915
  70.2291053  60.7224991  58.7364817  69.7169956  60.1146174  59.0949849
  70.0570549  61.4381584  59.2038793  70.1280690  60.7388291  58.8581041
  65.0756768  59.1662567  61.3867179  64.9059358  59.8263942  60.8415386
  64.6322717  59.3769128  62.1079668  64.9856101  59.2948549  61.4128809
  69.0016587  57.4067065  50.4293913  69.4773953  57.7684145  49.7944094
  68.5005187  58.0623532  50.7094056  68.9981946  57.5561253  50.3770654
  74.1060123  58.6449236  61.1767073  74.6631553  58.4163046  60.5445538
  73.7821188  59.4054902  60.9002285  74.1406533  58.7233073  61.0423570
  61.9758832  62.0709432  56.6455669  61.4285552  61.4010078  56.7636537
  62.7651210  61.7039280  56.7099136  62.0111016  61.9174419  56.6724370
  71.0443240  59.5508265  43.7967297  71.4242205  59.5687894  43.0118412
  70.3035836  59.9962253  43.6758144  70.9912078  59.6190039  43.6630865
  78.6728531  57.8590456  49.3842875  78.6722757  57.7039112  50.2427152
  78.4684711  58.7053443  49.3284261  78.6428308  57.9611076  49.5030815
  60.7345802  61.2830240  53.8001692  60.5567563  60.8306849  54.5256608
  60.4464824  62.0856402  53.9840170  60.6658755  61.3352798  53.9345195
  76.3969383  62.5387958  53.0379082  76.8923048  61.8210953  52.9983103
  75.5869158  62.2358755  52.9233569  76.3513276  62.3885604  53.0152808
  71.8427994  66.3885771  45.1876087  71.0339317  66.0652444  45.1409396
  72.3502903  65.6818993  45.1204335  71.7977661  66.2367087  45.1706381
  62.4718271  63.8157964  50.9123451  61.6063791  63.8043654  50.8006222
  62.5717087  63.6288187  51.7594590  62.3592438  63.7864025  51.0212396
  68.0975281  73.5855863  54.4853557  68.4121840  74.3992251  54.4931338
  68.5068695  73.2006081  55.1535716  68.2043379  73.6484565  54.5857648
  75.0499801  69.0025909  52.0557369  75.5210979  69.7166172  52.2247354
  75.3859979  68.4024659  52.5917238  75.1694916  69.0197374  52.1589744
  71.9669296  53.7753380  59.0115463  72.0997202  52.9784373  59.3396439
  72.3514449  54.3019783  59.5913739  72.0425625  53.7353297  59.1458966
  75.0401651  50.6983706  55.6096557  74.2347615  50.5881436  55.9264395
  74.9108387  50.7996162  54.7526422  74.9021784  50.6967376  55.5304597
  78.4967612  56.8629198  56.2036254  77.9130600  57.3638404  55.7913821
  78.8171906  56.3558754  55.5700577  78.4580787  56.8621033  56.0494761
  71.0362411  55.7769793  46.4794928  71.8578105  55.9468106  46.2376623
  70.5732062  55.9317054  45.7561226  71.0893573  55.8251526  46.3366573
  69.6257743  53.7712555  57.2593357  70.1702156  53.4303682  57.8497699
  69.6794678  54.6298016  57.4014642  69.7146862  53.8467814  57.3675230
  65.4388301  67.5328971  54.1332165  66.0433159  67.4924805  53.5045986
  65.2315614  68.3800123  54.1636221  65.4977199  67.6516973  54.0448282
  60.6739584  66.5163589  54.0031088  60.5763862  65.7059860  54.3121145
  61.4568453  66.4955382  53.6177356  60.7755720  66.3930679  53.9917951
  35.1107038   0.9435036  35.7667488  34.3589938   0.5650575  35.5383533
  35.5593050   0.9753470  35.0186298  35.0656705   0.8920643  35.6224990
  40.5631998   1.3660406  31.1953035  40.2283367   2.0437327  30.7597257
  41.0758868   0.9765717  30.6069906  40.5897579   1.4084984  31.0439826
  40.1036289   3.3174674  37.1364146  40.4875669   3.8861573  36.5968921
  40.0395431   2.5924185  36.6569962  40.1509717   3.2950138  36.9858009
  36.6891794   0.9553428  38.0330260  36.7902157   0.1453782  38.3427388
  36.0933540   0.8610375  37.4029939  36.6164333   0.8218456  37.9856499
  36.5292534   5.8731018  39.4345116  37.1729989   6.3144182  39.8241275
  36.8548789   5.0684444  39.3475375  36.6724363   5.8196212  39.4790593
  29.8856839  -3.0226285  37.6582594  29.6507023  -3.8558633  37.5514863
  30.0242479  -2.7421619  36.8443795  29.8712501  -3.1042782  37.5224949
  37.2313114  -1.1157008  34.8064978  37.5528955  -0.5751800  34.2026286
  37.8785210  -1.6860236  34.9387268  37.3739169  -1.1197832  34.7372013
  31.4474163   1.8559386  38.9338800  30.9641742   2.5809875  38.9098383
  32.2597482   2.1535516  39.0448958  31.4964911   2.0061739  38.9466079
  37.5188317   0.6491566  41.5388614  37.0015259   0.2898981  40.9349922
  38.2162709   0.1253741  41.5494680  37.5453898   0.5189254  41.4518873
  41.1751909   1.0986380  47.5004787  41.2635255   0.9112521  48.3482998
  41.6041622   0.4523810  47.1009634  41.2514012   0.9749388  47.5676539
  38.7422369   0.3817540  46.4822450  38.1793204  -0.0309850  47.0062111
  39.5043393   0.3070446  46.9015593  38.7716818   0.3094941  46.6215450
  34.3018361   2.3715562  39.0859080  35.0038940   1.8567551  39.1431836
  34.2215844   2.6989713  39.8905955  34.3942121   2.3429788  39.2131872
  33.6269136  -1.4378086  38.5944688  34.4658035  -1.2055154  38.6418449
  33.6580905  -2.3073775  38.5251723  33.7550854  -1.5321140  38.5909332
  34.2521839  -1.0177211  42.8957993  34.7920064  -1.1606080  43.5661366
  33.5691785  -0.6180460  43.2642020  34.2313993  -0.9797540  43.0492415
  41.2871969   0.5295399  50.1648571  42.0712385   0.6426247  50.5304313
  41.0868563  -0.2963463  50.3607257  41.3737994   0.4242119  50.2482957
  41.4442362   2.4405502  43.8115027  40.6457608   2.2005002  44.0688895
  41.8928373   2.4919894  44.5582074  41.3916973   2.4127893  43.9599951
  30.0652398  -4.0118141  40.3304159  29.8827971  -4.0371255  39.4776451
  30.8002067  -3.5419203  40.3693068  30.1466462  -3.9456779  40.2102078
  36.4045458  -1.7509351  37.3648101  37.0419404  -1.9897603  37.9099894
  36.8300529  -1.5472192  36.6301262  36.5621624  -1.7558341  37.3365258
  31.0958100   0.4878986  41.2482405  31.1362245   0.7593837  40.4202184
  31.6552624   1.0120894  41.6640193  31.1841446   0.6054741  41.1874293
  38.7866929  -1.2736928  39.0441887  38.8605938  -1.4361756  39.8983737
  39.6036436  -1.0846739  38.8002369  38.9183288  -1.2700186  39.1339913
  32.5472686  -0.9279065  36.0736331  31.7210804  -0.6817328  35.9470610
  32.6084677  -1.0066985  36.9398389  32.4346853  -0.9034116  36.1825275
  37.3271515   1.6897815  33.7755361  37.6169814   1.2986796  33.0514587
  38.0574996   1.8714520  34.2160636  37.4778399   1.6591629  33.7338168
  35.2677431   3.6665197  36.8415510  35.0477726   3.3762552  37.6342177
  35.0471953   3.0080152  36.3133423  35.2025025   3.5264906  36.8804419
  37.4345387   5.0394587  35.6246203  38.0869445   4.5071029  35.8537229
  36.7370995   4.6863239  36.0114077  37.4276104   4.9084110  35.7158371
  34.3826651  -2.6066235  35.0313577  35.1372619  -2.2253196  35.2449040
  33.7897264  -2.1555092  35.4860274  34.4063365  -2.4837408  35.1296456
  35.7024878  -1.4357674  40.4053693  35.1805631  -1.2957382  41.0905557
  36.0898898  -2.1947010  40.5955810  35.6828579  -1.5272150  40.5354769
  41.8991883   0.3037785  34.3914261  41.6578559  -0.4294354  33.9841326
  42.0793216   0.8524642  33.7380595  41.8899507   0.2760177  34.2344484
  36.2671363   2.2703106  43.4883548  36.4160927   1.7106022  42.8356953
  37.0471365   2.3495108  43.8716067  36.4045457   2.1988672  43.4480497
  38.7924664   2.4417749  44.7668039  38.7168335   1.7726560  45.3218827
  38.7214523   3.1435537  45.2808705  38.7705271   2.4462656  44.9244887
  39.4494911   0.9618748  35.5991645  40.2144802   0.6928392  35.2774309
  39.3473001   0.4768758  36.3161708  39.5476406   0.8508313  35.6571472
  38.1816298   5.8486069  43.2246040  38.6712229   5.1496858  43.0421704
  37.6100531   5.5509939  43.8122097  38.1700828   5.7012292  43.2847081
  38.6752644  -0.4037158  32.3485946  38.7445464  -1.2622619  32.4878947
  39.4541099  -0.1865277  32.0204971  38.8005494  -0.4984294  32.3203104
  43.0660132   2.0200544  36.5622440  42.6739923   1.7167259  35.8445306
  43.2213204   2.8569634  36.3727393  43.0313722   2.0984380  36.4278937
  43.8350437   1.4236036  39.9952474  43.6370126   1.9126851  39.3008685
  43.2138148   1.6277278  40.5736607  43.7138001   1.5252575  39.9775697
  31.3336783  -2.3539178  43.7054366  30.8036707  -3.0446739  43.7549341
  31.6061876  -2.3628992  42.8767074  31.2961505  -2.4572046  43.5901782
  26.6132625  -5.6811414  41.0622714  26.5076074  -5.7264569  40.1974798
  25.8632845  -5.3357633  41.3436999  26.4868228  -5.6370505  40.9760044
  40.0152943  -1.6256028  44.6586166  39.5078034  -1.0720181  45.1026796
  39.7179589  -1.5647738  43.8404940  39.8957828  -1.5349717  44.6034623
  42.6260723   2.2907230  32.5890109  41.9090033   2.1168092  32.1237347
  43.2767461   2.0559802  32.0565595  42.6162573   2.2303022  32.4419327
  39.2595428   3.3068530  41.5643173  39.0361082   2.5487359  41.9327199
  38.7705271   3.3366551  40.8423613  39.1538877   3.1990755  41.5119914
  37.9073885   3.5268988  39.0180257  37.4934284   2.8643118  38.6284099
  38.5921259   3.6746847  38.4975952  37.9472257   3.4509646  38.8836755
  41.2739179   2.6859073  39.7703874  40.8755462   2.7961344  39.0024694
  40.6590399   2.8941140  40.3530434  41.1238068   2.7332642  39.7435173
  34.8728355   3.9678070  41.4193603  35.1874913   4.7814458  41.4271385
  35.2821768   3.5828289  42.0875763  34.9796453   4.0306772  41.5197695
  43.9129859   0.9949430  51.1689487  44.0226824   0.2057991  51.5246235
  44.2420755   0.9055366  50.3663826  43.9782265   0.8655283  51.1031878
  32.2141375  -2.0848822  41.0672212  32.8186232  -2.1252987  40.4386033
  32.0068687  -1.2377670  41.0976268  32.2730272  -1.9660819  40.9788328
  42.0285147   0.1817124  42.2834449  42.8483521   0.0380090  42.5450744
  41.7479224   0.8063322  42.8250887  42.1081890   0.2527476  42.4022389
  27.4492657  -3.1014204  40.9371135  27.3516935  -3.9117933  41.2461192
  28.2321527  -3.1222411  40.5517403  27.5508793  -3.2247114  40.9257998
  58.4998797   7.8381975  35.2477326  58.4692802   8.6926612  35.4195595
  59.0980146   7.5377268  35.8063469  58.5835955   7.9198472  35.3552128
  51.6998482   6.9257626  40.0030256  50.8436378   7.0866124  40.0539373
  51.7466136   6.0549690  40.0235317  51.5797593   6.8208428  40.0136322
  55.0092199  13.1944152  49.6090712  55.7158966  12.6996183  49.7377647
  55.1980134  13.6353233  48.8793370  55.1420104  13.1862502  49.5199758
  51.5364582  16.8845714  31.1953035  51.2015950  17.5622635  30.7597257
  52.0491452  16.4951025  30.6069906  51.5630163  16.9270292  31.0439826
  51.0768873  18.8359982  37.1364146  51.4608252  19.4046881  36.5968921
  51.0128014  18.1109493  36.6569962  51.1242300  18.8135446  36.9858009
  54.5450303   8.9849670  42.6461908  55.0906263   9.6634757  42.7055877
  54.4867179   8.8437131  41.7863489  54.6166217   9.0641672  42.5273968
  56.3215372  10.4134277  33.5195635  56.2054898  11.1641963  33.9487774
  57.1171258  10.1558231  33.7691722  56.4219961  10.4869124  33.6199727
  40.8589422  12.4959023  37.6582594  40.6239607  11.6626675  37.5514863
  40.9975063  12.7763689  36.8443795  40.8445085  12.4142526  37.5224949
  43.1579510   4.6644753  40.5566901  42.5384541   4.0737401  40.3876916
  43.0563373   5.2556189  39.9231225  43.0517185   4.6648836  40.4371891
  50.2547405   6.4044295  34.8899365  50.9527570   6.5832423  35.3820828
  50.5699738   5.8814635  34.2669754  50.4042742   6.3538067  34.8701375
  42.8848643   8.2097035  42.8010470  42.7607340   8.7959481  43.4360289
  43.5366927   7.7157231  43.1022745  42.9622292   8.2235840  42.9396400
  47.9106984  11.3858752  42.0797982  48.5555986  10.8931195  41.7608930
  48.1508761  11.5283539  42.9064060  48.0417569  11.3336194  42.1547515
  50.4493075  14.2313658  41.7304874  50.7316318  13.4365064  41.5091630
  51.1779235  14.7094245  41.7509935  50.5982639  14.1848255  41.7007889
  48.4274269   1.7736692  38.9720639  48.0977599   2.2247835  38.3024338
  47.7519271   1.6952855  39.5193646  48.2784705   1.8287827  38.9543862
  54.0444677  11.1441922  31.8309925  53.9595972  12.0002888  31.9759494
  54.5329060  10.8686246  32.4992084  54.1033574  11.2299243  31.9512007
  54.9763110   7.7626716  33.3307660  54.4474582   7.9786349  33.9904967
  55.4988130   8.4562854  33.2508630  54.9751563   7.8969853  33.4163260
  60.4311163  13.3373020  38.7040705  59.6008866  13.5483664  38.8674121
  60.3820416  12.5110075  38.4282988  60.3017899  13.2462626  38.6878070
  46.8662718  11.6589933  32.1315128  46.2819933  12.1639964  32.5380992
  46.4632813  11.4332319  31.3911720  46.7202022  11.6998181  32.0820154
  52.1484493  16.6171688  47.5004787  52.2367839  16.4297829  48.3482998
  52.5774205  15.9709118  47.1009634  52.2246595  16.4934696  47.5676539
  51.3239933   7.9055585  30.6084049  51.5635936   8.1133568  29.7959392
  51.6455774   7.1013093  30.7172993  51.4077091   7.8169686  30.5044602
  59.9265122   5.9843421  42.4991126  59.0893543   6.0545608  42.7338721
  59.8953353   5.9867916  41.6265429  59.7983404   5.9953648  42.4050674
  46.3229851   8.1276456  48.2139495  46.4950354   8.0182351  49.0624776
  46.8599208   8.7730862  47.9770687  46.4274855   8.2068458  48.3044592
  44.9887288   2.2419299  31.1521700  44.8062861   2.4591180  30.3262693
  45.8512901   2.3558312  31.2080314  45.0891877   2.2909197  31.0376187
  54.6495307  10.1799097  38.0903018  55.4052822  10.6130612  38.1291926
  54.7557632   9.5303867  38.6637654  54.7765478  10.1476581  38.1801043
  57.6875479  14.0072375  38.8405421  57.2510710  14.0109117  39.5964392
  57.3538394  14.6877874  38.4084998  57.5738099  14.1084830  38.8886253
  52.2604552  16.0480707  50.1648571  53.0444969  16.1611555  50.5304313
  52.0601147  15.2221845  50.3607257  52.3470578  15.9427427  50.2482957
  40.6291568  10.7208388  43.0492415  40.3629983   9.9047504  43.2083405
  40.6430132  10.7661543  42.1787930  40.5916290  10.6065292  42.9445897
  44.5349315   5.5193472  29.6644173  43.8207492   5.2331651  30.0766605
  45.0193283   5.8590098  30.3050560  44.5008678   5.5275122  29.8199808
  45.3790174   4.2586766  45.6959423  44.6861971   3.7883746  45.9420154
  45.9950501   4.0325070  46.2701130  45.3674704   4.1553898  45.8168575
  60.8219825  10.7253294  37.7325058  61.4836259  10.1643963  37.6320966
  60.1811237  10.2305325  38.0577749  60.8248692  10.5689704  37.7657398
  51.7096633  14.0223426  30.0405981  52.1247781  13.6908450  29.3490477
  50.8788562  13.7892328  29.9126118  51.6484641  13.9394682  29.9196829
  41.0384981  11.5067167  40.3304159  40.8560555  11.4814053  39.4776451
  41.7734650  11.9766105  40.3693068  41.1199045  11.5728529  40.2102078
  57.1084655  11.7418677  37.4737047  57.3440245  11.8863876  36.6463897
  57.2574219  12.5061085  37.8668560  57.1650459  11.8757731  37.4100651
  44.1030733   8.2252170  46.8386268  44.8270705   8.2105200  47.3251162
  44.2046869   8.9347525  46.3408236  44.2248942   8.3276873  46.8365055
  58.9375112  10.5820343  35.3106650  59.2683329  11.1147983  34.7046745
  59.5108200  10.6359231  35.9668601  59.0708791  10.6689912  35.3184432
  51.4775682  11.7051254  51.7035215  50.6848663  12.0194766  51.8887834
  51.5924609  11.9202723  50.8655999  51.3771093  11.7835091  51.6073550
  54.1507001   8.4285246  35.9930231  54.2453856   9.1674540  36.4469856
  53.5265845   8.0002721  36.4264795  54.0716031   8.4746566  36.1238378
  52.4059475  11.6071458  46.6420511  52.9798337  10.9698702  46.7969075
  52.3274279  11.6075541  45.7730169  52.4792710  11.5136570  46.5366922
  41.0055892   8.3860668  40.4803226  41.5829394   8.2497118  41.1195471
  40.3069953   7.9296452  40.7348810  40.9876913   8.2982934  40.6125515
  54.4030023  10.2733985  29.2267183  54.3210185  10.3436172  30.0922170
  55.0409743  10.8363729  29.0350923  54.4849860  10.3672956  29.3257132
  47.7623194  10.0394723  38.6941709  47.5042438   9.2066458  38.6673008
  47.8171677  10.2652336  37.8534209  47.7322972   9.9492495  38.5661846
  46.7357906   7.5932486  39.1806604  46.1607497   7.7524654  39.8170565
  46.3593582   6.9567895  38.7175054  46.5960718   7.5230299  39.2061162
  50.4031195   6.0655835  44.0398982  50.0145627   5.6410053  43.3851173
  49.7385893   6.3137985  44.5476009  50.2478122   6.0394556  44.0186850
  36.4814725   7.2372560  37.1951044  36.5674977   6.8604429  37.9764574
  37.1090522   6.8633006  36.7171003  36.5871276   7.1258043  37.2396522
  51.5070133  10.2954440  32.2375789  52.3210772  10.5869332  32.1258560
  51.4429274   9.6414302  31.6634082  51.6172872  10.2419634  32.1364626
  57.7279623  12.9780436  46.6505365  57.4918260  12.1468501  46.5317425
  58.3722852  12.9266043  47.2360209  57.7874294  12.8478124  46.7191258
  48.0180856   8.9878247  31.7022990  48.4026009   8.7685954  32.4539536
  47.7692476   9.8141192  31.8324067  48.0382929   9.0776393  31.8324067
  48.1849397   2.2684662  51.4185575  47.8702838   3.0384225  51.1555137
  47.8639329   1.7054918  50.8337802  48.0908316   2.2994931  51.2926925
  58.7516044  12.7624885  42.7133659  58.4461861  13.4952941  43.0746975
  58.0322259  12.3562814  42.4326445  58.6003386  12.8106617  42.7246796
  64.4517836   9.4017885  42.0402003  64.3842336   9.4213844  41.1704590
  64.4373498  10.2448212  42.2657674  64.4396592   9.5291620  41.9454480
  43.5205270  14.5906243  36.0736331  42.6943387  14.8367980  35.9470610
  43.5817261  14.5118323  36.9398389  43.4079437  14.6151191  36.1825275
  45.7381294   0.6575184  37.0331771  44.8703719   0.7297783  37.0989380
  46.0256498   1.4597262  37.2219746  45.6521042   0.7869331  37.0706538
  62.2376453   8.1762271  40.3148598  62.7884375   7.5430340  40.5545690
  62.2220568   8.7077664  41.0064102  62.3161649   8.1611220  40.4527456
  48.8898844  12.0100869  44.8608491  48.3910538  12.7216636  44.9393380
  49.6999068  12.3301535  44.8226654  48.9354951  12.1627717  44.8665060
  45.1526962  11.2723822  39.1071212  44.8640210  10.6461293  39.6416939
  46.0210310  11.2144109  39.1735893  45.2387213  11.1711366  39.1962167
  55.9404859   6.4158605  39.4253194  55.5969625   5.6948940  39.7760444
  56.0397902   6.2072456  38.5831552  55.9046902   6.2782808  39.3524874
  56.4017888  12.8784309  34.9677182  56.9675921  13.5377519  34.8835725
  55.7545792  13.2234007  35.4393584  56.3896645  13.0266250  35.0249939
  47.8165902   4.8681913  50.1570790  47.0065678   5.1739693  50.0460632
  48.2940589   5.5887495  50.2723374  47.7669381   5.0196514  50.1577861
  43.6648646   4.1333443  34.4748647  43.3773441   3.7634713  33.7380595
  44.3519114   4.6028298  34.2132352  43.7237543   4.1480412  34.3263723
  52.8724467  15.8223093  34.3914261  52.6311142  15.0890954  33.9841326
  53.0525799  16.3709950  33.7380595  52.8632090  15.7945484  34.2344484
  46.5002317   7.9986391  35.9216052  47.2224969   8.1627549  35.4619858
  46.0210310   8.7196056  35.8155392  46.5366048   8.1284621  35.8381666
  54.4595825   4.3350190  41.3012737  53.6206925   4.3611469  41.0651000
  54.5300192   4.9820925  41.8818084  54.3464218   4.4346316  41.3521854
  44.1509934  10.4044463  45.0270192  44.6631031  10.6828717  44.3778952
  43.8646276  11.1433757  45.3933005  44.1844797  10.5546817  44.9860070
  58.3353349   9.5418177  38.5873979  58.2487323   9.6973603  39.4408758
  57.8803829  10.1856252  38.2133384  58.2556605   9.6593932  38.6581085
  41.2376840   4.9114655  35.3233928  41.3392977   5.7140817  35.6514904
  42.0332727   4.7101991  35.0257009  41.3704746   5.0000554  35.3269284
  47.6693659   2.4970852  45.0871233  47.4776856   2.5125986  45.9370657
  48.5192255   2.6934526  45.0637888  47.7669381   2.5285203  45.2094528
  42.0540572   5.0261833  43.0655050  41.9126064   4.1745774  43.1899558
  42.3381136   5.0690494  42.2417256  42.0748418   4.9061584  42.9622674
  52.2079165   6.8628924  37.2099538  51.9613879   6.7824675  38.0436327
  52.5364288   6.0782392  37.0162066  52.2200408   6.7355189  37.3047061
  56.1027213  13.5712283  40.9986319  55.9641573  14.2693329  41.5035062
  55.3227211  13.4160939  40.6422501  55.9670440  13.6512450  41.0212594
  54.4405299   9.8708658  47.2508701  54.4353337   8.9988475  47.2551128
  55.1466292  10.0696828  46.7778157  54.5450303   9.7712533  47.1815737
  48.1676192   9.5985642  46.6222521  48.3119568  10.1786850  45.9865631
  48.5151840   9.9761939  47.3272376  48.2403653   9.7406346  46.6321516
  50.3396109   8.7975811  44.4047653  49.5919423   8.9906825  43.9995931
  50.4937635   7.9721030  44.1671774  50.2518537   8.7040922  44.3093059
  57.5980586  12.9290537  31.7602819  57.2187395  12.1427675  31.7532108
  56.9346832  13.4777394  31.6174463  57.4439061  12.8935361  31.7383616
  50.5797886   2.6926361  45.2943057  51.0370500   3.4250336  45.4215849
  50.6554215   2.2692827  46.0530312  50.6588856   2.7383599  45.4244133
  42.8230878   2.9392181  46.3832500  42.2873067   2.3272539  46.6993268
  42.8848642   3.5140317  47.0366167  42.7526510   2.9339109  46.5267927
  48.4580264   4.6828465  42.1384881  47.6676339   4.5019925  42.4602216
  48.8540887   3.9055418  42.1215175  48.3997140   4.5415926  42.1837429
  52.9446155  13.5116240  27.5791594  53.7119140  13.5716365  27.1697446
  52.4977464  12.9396681  27.0947913  52.9919582  13.4352815  27.4469305
  53.8423951  12.3170895  39.8644327  53.1668952  12.0856128  40.3657714
  53.8516327  11.7092078  39.2386432  53.7442455  12.1929821  39.8460479
  50.9718095   7.1588724  46.6208380  50.9077236   8.0198681  46.4928516
  51.1115282   6.8420718  45.8203931  50.9833565   7.2388891  46.4836592
  55.8440685  15.1736028  32.0954505  55.9260523  15.9803014  31.7715955
  56.3290427  15.1931987  32.8195278  55.9277843  15.2956690  32.1541403
  49.6537188   9.8520864  40.7624582  49.2299438  10.0525363  40.0263601
  49.4782044   9.0049712  40.8748882  49.5648069   9.7569645  40.6698273
  44.9419633  10.3472915  36.1952555  45.0984253  10.2819718  37.0508547
  45.2820226  11.1221468  35.9831235  45.0152868  10.4522113  36.2907149
  51.4798778   9.7230799  35.0645918  52.0214323   9.2201180  35.5284539
  51.7945337   9.6695993  34.2535403  51.6063175   9.6410220  35.0129730
  55.3515885  13.9333446  52.1772830  56.1650751  13.6618595  52.3377963
  55.1910852  13.6340986  51.3733026  55.4485834  13.8488372  52.0818236
  52.6288047   4.6167103  45.1168219  52.8430017   3.9778017  44.5631573
  52.0121947   5.0612927  44.6876080  52.5693377   4.5877247  44.9718650
  54.0392715  17.5385852  36.5622440  53.6472507  17.2352567  35.8445306
  54.1945788  18.3754942  36.3727393  54.0046305  17.6169688  36.4278937
  41.5153895   7.5307866  36.5113322  41.8952860   7.9492411  35.8473589
  40.9409260   8.1121321  36.8182165  41.4865220   7.6785724  36.4590063
  54.7927135   6.2256168  46.0551526  53.9803817   5.9182059  46.1364698
  55.2517070   5.7455169  46.6194238  54.7407520   6.1092661  46.1506120
  54.2032390  14.1035840  36.5028470  53.8447045  14.2750483  37.2792503
  53.7171101  14.5649046  35.9456469  54.0791087  14.1974811  36.5353739
  48.9920755   9.7835006  29.0428704  49.2813280  10.5599888  29.3172279
  49.0792554   9.2723737  29.7443204  49.0475012   9.8226924  29.1871202
  51.8880643   7.6316240  50.8380228  52.3580274   8.2558356  51.2248102
  51.9342523   6.9633215  51.3973443  51.9648519   7.6250920  50.9780299
  55.3637129  14.9939736  47.4495671  56.0016850  14.4999932  47.1158127
  54.7211221  14.9217137  46.8647898  55.3631356  14.9098745  47.3138026
  57.0894129   6.8428882  42.0161587  56.6621738   6.7555231  41.2609686
  56.4520182   6.9506658  42.6016431  56.9323737   6.8461542  41.9907028
  55.4191386  15.6859545  44.0901028  56.2083764  15.3348609  44.2103109
  55.5934984  16.4995933  43.8277662  55.5611668  15.7545402  44.0688896
  45.1584696   9.0968270  41.1428817  44.3172703   8.9972145  41.3507710
  45.3674704   9.8663751  41.4943137  45.0649389   9.1960314  41.2256131
  42.6360263   6.7187807  38.9713567  42.2416961   6.7930819  38.1963677
  42.0800380   7.1045754  39.5221929  42.4963076   6.7869582  38.9381227
  48.9701361   7.0249670  40.3926414  48.6664499   6.4705658  40.9936822
  48.2680782   7.2041880  39.9054448  48.8217571   6.9694452  40.4096120
  48.0267458   4.3350189  34.9571116  48.3027193   3.6169102  34.5448683
  48.6266128   4.9335109  34.7492222  48.1560723   4.3170560  34.8651877
  45.0493504  11.4912033  42.5620449  44.4581438  12.1321531  42.5323465
  45.8114528  11.9149650  42.5351749  45.0741765  11.6487871  42.5535597
  45.4454127   2.6514030  43.2288467  45.9055609   2.7252960  43.9663591
  45.4910234   3.4495284  42.8788288  45.5204682   2.7808178  43.2861224
  47.0937477   3.3180725  47.7960494  46.7023042   2.6714072  48.2316272
  47.2623340   3.9092161  48.4154750  47.0608387   3.3094993  47.9523200
  61.1683926  11.3217802  43.5597728  61.2267050  11.7704451  44.3057704
  60.5350393  11.7316615  43.1227808  61.0835221  11.4491537  43.6050276
  54.8083021  16.9421344  39.9952474  54.6102709  17.4312159  39.3008685
  54.1870732  17.1462586  40.5736607  54.6870585  17.0437883  39.9775697
  48.8690999   8.7106241  34.3362718  49.6133044   9.0980517  34.5745668
  49.0151695   7.8663666  34.5003206  49.0001584   8.6436714  34.3956688
  51.8568875   4.2831714  40.2356638  51.3828829   3.7573476  40.7461948
  52.2287011   3.7361187  39.6671499  51.8418764   4.1247711  40.2271785
  42.2341905   6.2803221  45.6040183  43.0967518   6.1798930  45.5177513
  41.9033688   5.6997930  45.0425755  42.3127101   6.1794848  45.5085589
  58.1205605   9.3434090  41.6463418  57.8803828   8.5040505  41.6505844
  58.5997612   9.4234257  42.3704192  58.1557789   9.2315490  41.7538220
  53.7852374   5.1768269  33.2982391  53.2575393   5.2597013  32.6088100
  54.2448083   5.9186140  33.2947036  53.7754225   5.2988931  33.1957086
  60.1210792   6.1235547  39.5992677  59.8820562   6.0831381  38.7613462
  60.2844694   6.9706699  39.7258398  60.1101096   6.2427632  39.4946159
  56.7256822  10.5085497  45.5297722  57.4491021  10.0558023  45.3508742
  56.4606785  10.7890162  44.7470050  56.7938096  10.4836465  45.3876438
  45.5943691   5.1045670  42.2650601  44.9696761   5.1164062  41.6576554
  45.2589286   5.5805845  42.9141842  45.4529183   5.1764187  42.2707170
  45.7785440   3.4470789  28.3223286  45.4298244   4.0990514  28.7854836
  45.2981885   3.4327902  27.5947158  45.6555683   3.5413842  28.2834378
  42.3069366  13.1646130  43.7054366  41.7769291  12.4738569  43.7549341
  42.5794460  13.1556316  42.8767074  42.2694089  13.0613262  43.5901782
  53.3389457  13.7471833  32.4292048  54.0623656  14.2129946  32.2856622
  52.8990048  13.8145442  31.6789645  53.3805149  13.8255669  32.2976830
  52.5075612  10.6069375  43.6792737  51.8932605  10.0627425  43.9741373
  53.0242897  10.0933611  43.1998553  52.4931274  10.4505784  43.6516966
  51.7471909  11.6773645  41.4137036  51.3199517  11.0523363  40.9802471
  51.7396853  11.3948567  42.2396043  51.6831050  11.5426425  41.4716864
  44.8634436   6.7138818  44.4825470  45.0227923   5.9582142  44.8877192
  44.6827330   7.2629757  45.1366208  44.8599795   6.6832632  44.6388176
  50.0757619   2.5542399  41.6279570  50.1000106   2.0202512  40.9392350
  50.3269092   2.0459708  42.2905161  50.1167537   2.4003303  41.6244215
  37.5865209   9.8373894  41.0622714  37.4808658   9.7920739  40.1974798
  36.8365429  10.1827675  41.3436999  37.4600812   9.8814803  40.9760044
  46.3558941   1.2813218  41.0085314  46.3957313   1.7822424  41.7220022
  45.5308606   1.3723611  40.7391237  46.2398467   1.3695034  41.0735853
  48.5388554  10.8473958  49.1105609  47.6884184  10.9845672  49.2463254
  48.7016682  10.1137736  49.5553311  48.4372417  10.7588059  49.1961208
  47.7773304   7.7973727  43.3059213  46.9465234   7.9647545  43.0994461
  47.7224822   7.4209678  44.0908099  47.6462719   7.7663459  43.3907741
  45.5857088   1.2882620  48.9415624  46.2109791   0.7444753  49.2145056
  45.1307568   0.8077538  48.3723414  45.6105348   1.1372102  48.8977218
  46.1509348   6.0729319  33.8349331  46.2912309   6.5701783  34.5377972
  46.6491881   5.3715613  33.9763545  46.2450429   6.0431298  33.9600910
  46.1809571   6.9396430  31.1641908  46.8154650   7.5356855  31.0991370
  46.2635181   6.6399888  31.9787778  46.2866122   6.9837338  31.2744994
  59.1592136   9.4711907  44.0328272  59.7509977  10.1109158  44.0646470
  59.5951131   8.7734944  44.3220339  59.3110568   9.4630258  44.0809105
  47.7588553   2.8710405  31.1387350  48.0804395   2.3913488  30.4846612
  48.0215497   3.6810051  30.9478161  47.8454579   2.9200303  31.0142842
  50.9885526  13.8929280  44.6586166  50.4810617  14.4465127  45.1026796
  50.6912172  13.9537570  43.8404940  50.8690411  13.9835591  44.6034623
  42.6862559   9.1364271  34.4331454  43.1954788   9.7328778  34.8142759
  43.1596831   8.8690244  33.7507873  42.8305934   9.1850086  34.3885977
  53.5993307  17.8092537  32.5890109  52.8822616  17.6353400  32.1237347
  54.2500044  17.5745110  32.0565595  53.5895157  17.7488330  32.4419327
  56.1841278   6.6857126  36.3331415  55.5132468   7.2286828  36.2044480
  56.8781028   7.1551981  36.0913109  56.1870145   6.8355397  36.2786942
  45.0453090   5.7720529  37.3004634  44.3265079   6.1884662  37.5677498
  45.4165453   6.3374768  36.7496272  44.9945022   5.9169811  37.2587441
  54.3452671   6.4048378  43.1906630  54.3250598   6.2231673  44.0441409
  54.3931872   7.2760397  43.1666214  54.3487312   6.5064917  43.3129925
  52.2899001  12.9935570  49.1155107  52.2494856  12.3485247  48.5300262
  53.1022319  12.9372188  49.4280519  52.4042154  12.8894537  49.0752056
  52.2471763  18.2044381  39.7703874  51.8488046  18.3146652  39.0024694
  51.6322982  18.4126448  40.3530434  52.0970652  18.2517949  39.7435173
  50.8199665   4.8118529  32.6378014  50.2264504   5.1335526  32.0862581
  50.8574942   3.9659625  32.4299120  50.7374054   4.7342857  32.5260785
  53.6957481   4.7698034  36.0679764  53.4671174   4.7930735  35.2258122
  53.9555557   3.9455501  36.1874775  53.7003669   4.6514114  35.9604962
  47.9776710   6.6232507  45.6704864  47.4655613   6.0153690  46.0289896
  47.8056206   7.3389099  46.1378840  47.8766347   6.6395806  45.7921088
  42.8242424   5.0670082  48.3207226  42.6545015   5.7271457  47.7755433
  42.3808374   5.2776643  49.0419715  42.7341758   5.1956064  48.3468855
  46.7502244   3.3074580  37.3633960  47.2259610   3.6691660  36.7284141
  46.2490843   3.9631048  37.6434102  46.7467603   3.4568769  37.3110701
  59.9813605  12.7796348  33.1546965  60.3647211  13.5287704  33.3845062
  59.1857719  13.0262168  32.8958954  59.9207388  12.9266042  33.1504538
  51.8545780   4.5456751  48.1107120  52.4117210   4.3170561  47.4785585
  51.5306845   5.3062417  47.8342332  51.8892190   4.6240588  47.9763617
  39.7244489   7.9716948  43.5795716  39.1771208   7.3017593  43.6976584
  40.5136867   7.6046796  43.6439183  39.7596673   7.8181934  43.6064416
  49.5728897   7.6324405  49.0759127  50.3240224   7.9476082  49.3898681
  49.7651474   7.4303576  48.2493049  49.7120311   7.6491787  49.0002523
  48.7928897   5.4515780  30.7307344  49.1727862   5.4695409  29.9458458
  48.0521493   5.8969769  30.6098191  48.7397735   5.5197554  30.5970912
  38.4831458   7.1837755  40.7341739  38.3053219   6.7314364  41.4596654
  38.1950480   7.9863917  40.9180216  38.4144412   7.2360313  40.8685242
  54.1455039   8.4395473  39.9719129  54.6408705   7.7218468  39.9323149
  53.3354815   8.1366271  39.8573616  54.0998933   8.2893119  39.9492855
  49.5913651  12.2893286  32.1216134  48.7824974  11.9659960  32.0749443
  50.0988560  11.5826508  32.0544382  49.5463318  12.1374602  32.1046428
  40.2203928   9.7165479  37.8463498  39.3549448   9.7051170  37.7346269
  40.3202744   9.5295702  38.6934637  40.1078095   9.6871540  37.9552442
  56.2106858  11.1899160  42.6596258  56.6361930  10.6673582  42.1066683
  55.8463778  11.7879998  42.1384881  56.2193461  11.2009387  42.5005268
  52.7985458  14.9033425  38.9897415  53.2696636  15.6173687  39.1587401
  53.1345636  14.3032175  39.5257285  52.9180573  14.9204889  39.0929791
  54.8862442  16.5134738  51.1689487  54.9959408  15.7243299  51.5246235
  55.2153339  16.4240674  50.3663826  54.9514848  16.3840591  51.1031878
  53.4359404  14.6951359  45.7525108  52.8880350  14.0709242  45.4845173
  53.8972433  14.8845631  45.0369187  53.4226614  14.6310409  45.6075539
  48.7848068   1.6777308  33.4134975  49.6063762   1.8475621  33.1716670
  48.3217718   1.8324569  32.6901273  48.8379230   1.7259041  33.2706619
  43.1873958  13.4336486  41.0672212  43.7918816  13.3932320  40.4386033
  42.9801271  14.2807638  41.0976268  43.2462856  13.5524489  40.9788328
  53.0017730  15.7002431  42.2834449  53.8216104  15.5565397  42.5450744
  52.7211808  16.3248630  42.8250887  53.0814474  15.7712783  42.4022389
  38.4225241  12.4171104  40.9371135  38.3249519  11.6067375  41.2461192
  39.2054110  12.3962897  40.5517403  38.5241377  12.2938194  40.9257998
  69.4731381  23.3567283  35.2477326  69.4425385  24.2111920  35.4195595
  70.0712729  23.0562576  35.8063469  69.5568539  23.4383780  35.3552128
  62.6731066  22.4442934  40.0030256  61.8168961  22.6051432  40.0539373
  62.7198719  21.5734998  40.0235317  62.5530177  22.3393736  40.0136322
  65.9824782  28.7129460  49.6090712  66.6891549  28.2181491  49.7377647
  66.1712718  29.1538541  48.8793370  66.1152688  28.7047810  49.5199758
  62.5097165  32.4031022  31.1953035  62.1748534  33.0807943  30.7597257
  63.0224036  32.0136333  30.6069906  62.5362746  32.4455600  31.0439826
  62.0501456  34.3545290  37.1364146  62.4340836  34.9232189  36.5968921
  61.9860598  33.6294801  36.6569962  62.0974884  34.3320754  36.9858009
  65.5182887  24.5034978  42.6461908  66.0638847  25.1820065  42.7055877
  65.4599763  24.3622439  41.7863489  65.5898801  24.5826980  42.5273968
  58.6356961  31.9924044  38.0330260  58.7367324  31.1824398  38.3427388
  58.0398707  31.8980991  37.4029939  58.5629500  31.8589072  37.9856499
  67.2947955  25.9319585  33.5195635  67.1787481  26.6827271  33.9487774
  68.0903842  25.6743538  33.7691722  67.3952545  26.0054432  33.6199727
  54.1312093  20.1830061  40.5566901  53.5117125  19.5922709  40.3876916
  54.0295957  20.7741497  39.9231225  54.0249769  20.1834144  40.4371891
  59.1778281  29.9213608  34.8064978  59.4994122  30.4618816  34.2026286
  59.8250377  29.3510380  34.9387268  59.3204336  29.9172783  34.7372013
  61.2279989  21.9229603  34.8899365  61.9260154  22.1017731  35.3820828
  61.5432321  21.3999943  34.2669754  61.3775326  21.8723375  34.8701375
  53.8581226  23.7282343  42.8010470  53.7339923  24.3144789  43.4360289
  54.5099511  23.2342539  43.1022745  53.9354876  23.7421148  42.9396400
  61.4167924  28.3100048  34.8779156  61.8561560  27.7017149  35.3233929
  61.2672587  27.9307422  34.1064621  61.4589390  28.1638519  34.8298323
  58.8839567  26.9044060  42.0797982  59.5288570  26.4116503  41.7608930
  59.1241344  27.0468847  42.9064060  59.0150152  26.8521502  42.1547515
  61.4225659  29.7498966  41.7304874  61.7048901  28.9550372  41.5091630
  62.1511819  30.2279553  41.7509935  61.5715222  29.7033563  41.7007889
  59.4006852  17.2922000  38.9720639  59.0710182  17.7433143  38.3024338
  58.7251854  17.2138163  39.5193646  59.2517289  17.3473135  38.9543862
  65.0177261  26.6627229  31.8309925  64.9328556  27.5188196  31.9759494
  65.5061644  26.3871554  32.4992084  65.0766158  26.7484551  31.9512007
  66.6083260  13.2807523  37.2170250  66.2936701  13.9711001  37.6490672
  66.0910202  13.2252305  36.5155750  66.4847731  13.3742411  37.1767199
  65.9495694  23.2812024  33.3307660  65.4207165  23.4971657  33.9904967
  66.4720714  23.9748162  33.2508630  65.9484147  23.4155161  33.4163260
  71.4043747  28.8558328  38.7040705  70.5741450  29.0668972  38.8674121
  71.3552999  28.0295383  38.4282988  71.2750482  28.7647934  38.6878070
  57.8395302  27.1775240  32.1315128  57.2552517  27.6825272  32.5380992
  57.4365397  26.9517627  31.3911720  57.6934606  27.2183489  32.0820154
  59.4653484  31.6862182  41.5388614  58.9480426  31.3269597  40.9349922
  60.1627876  31.1624357  41.5494680  59.4919066  31.5559870  41.4518873
  63.1217076  32.1356996  47.5004787  63.2100422  31.9483137  48.3482998
  63.5506789  31.4894426  47.1009634  63.1979179  32.0120004  47.5676539
  60.6887536  31.4188156  46.4822450  60.1258371  31.0060766  47.0062111
  61.4508560  31.3441062  46.9015593  60.7181985  31.3465557  46.6215450
  62.2972516  23.4240893  30.6084049  62.5368520  23.6318876  29.7959392
  62.6188357  22.6198401  30.7172993  62.3809674  23.3354994  30.5044602
  57.6062807  15.3534288  34.4543587  58.3608775  15.7212605  34.2160637
  57.4290341  15.7273843  35.2222766  57.6917285  15.4632476  34.5328475
  70.8997705  21.5028729  42.4991126  70.0626126  21.5730916  42.7338721
  70.8685936  21.5053224  41.6265429  70.7715988  21.5138956  42.4050674
  57.2962434  23.6461764  48.2139495  57.4682938  23.5367659  49.0624776
  57.8331792  24.2916170  47.9770687  57.4007438  23.7253766  48.3044592
  55.9619871  17.7604607  31.1521700  55.7795444  17.9776488  30.3262693
  56.8245484  17.8743620  31.2080314  56.0624461  17.8094505  31.0376187
  56.1987006  30.0193405  42.8957993  56.7385231  29.8764536  43.5661366
  55.5156952  30.4190155  43.2642020  56.1779160  30.0573076  43.0492415
  61.6419590  14.7631018  34.1870724  62.3705751  14.5846973  33.7408880
  61.7314483  15.6049098  34.3977902  61.7626252  14.8614896  34.1524241
  65.6227891  25.6984405  38.0903018  66.3785406  26.1315920  38.1291926
  65.7290215  25.0489175  38.6637654  65.7498062  25.6661889  38.1801043
  68.6608062  29.5257683  38.8405421  68.2243294  29.5294425  39.5964392
  68.3270978  30.2063182  38.4084998  68.5470682  29.6270138  38.8886253
  63.2337136  31.5666015  50.1648571  64.0177552  31.6796863  50.5304313
  63.0333730  30.7407152  50.3607257  63.3203161  31.4612735  50.2482957
  51.6024151  26.2393695  43.0492415  51.3362566  25.4232812  43.2083405
  51.6162715  26.2846851  42.1787930  51.5648874  26.1250600  42.9445897
  68.5805545  16.5671510  41.0834849  69.2231453  16.6369615  41.6696764
  68.8328566  15.9000733  40.5814390  68.7127677  16.4797859  41.0962128
  55.5081898  21.0378780  29.6644173  54.7940075  20.7516959  30.0766605
  55.9925867  21.3775406  30.3050560  55.4741262  21.0460430  29.8199808
  56.3522758  19.7772074  45.6959423  55.6594554  19.3069053  45.9420154
  56.9683085  19.5510378  46.2701130  56.3407288  19.6739206  45.8168575
  63.3907529  33.4776117  43.8115027  62.5922775  33.2375617  44.0688895
  63.8393541  33.5290510  44.5582074  63.3382140  33.4498509  43.9599951
  71.7952408  26.2438602  37.7325058  72.4568842  25.6829271  37.6320966
  71.1543820  25.7490633  38.0577749  71.7981276  26.0875011  37.7657398
  62.6829216  29.5408734  30.0405981  63.0980365  29.2093758  29.3490477
  61.8521146  29.3077636  29.9126118  62.6217225  29.4579990  29.9196829
  68.0817239  27.2603985  37.4737047  68.3172828  27.4049184  36.6463897
  68.2306803  28.0246393  37.8668560  68.1383042  27.3943039  37.4100651
  55.0763317  23.7437478  46.8386268  55.8003289  23.7290508  47.3251162
  55.1779453  24.4532833  46.3408236  55.1981526  23.8462181  46.8365055
  69.9107696  26.1005651  35.3106650  70.2415913  26.6333291  34.7046745
  70.4840784  26.1544539  35.9668601  70.0441375  26.1875220  35.3184432
  62.4508266  27.2236562  51.7035215  61.6581247  27.5380074  51.8887834
  62.5657193  27.4388031  50.8655999  62.3503676  27.3020399  51.6073550
  65.1239585  23.9470553  35.9930231  65.2186439  24.6859848  36.4469856
  64.4998428  23.5188029  36.4264795  65.0448615  23.9931874  36.1238378
  63.3792059  27.1256766  46.6420511  63.9530920  26.4884010  46.7969075
  63.3006862  27.1260848  45.7730169  63.4525294  27.0321877  46.5366922
  65.3762606  25.7919293  29.2267183  65.2942769  25.8621480  30.0922170
  66.0142327  26.3549037  29.0350923  65.4582444  25.8858264  29.3257132
  58.7355777  25.5580031  38.6941709  58.4775022  24.7251766  38.6673008
  58.7904260  25.7837644  37.8534209  58.7055555  25.4677802  38.5661846
  63.8156828  17.6608482  38.7945802  63.1113154  17.1717667  38.9529721
  63.8641802  17.6730956  37.9234246  63.7186879  17.5898130  38.6885141
  57.7090490  23.1117794  39.1806604  57.1340081  23.2709962  39.8170565
  57.3326166  22.4753203  38.7175054  57.5693302  23.0415607  39.2061162
  61.3763778  21.5841143  44.0398982  60.9878211  21.1595361  43.3851173
  60.7118477  21.8323293  44.5476009  61.2210706  21.5579864  44.0186850
  71.0187047  21.3416148  36.8146812  70.7623612  20.5296089  36.6244695
  71.8616361  21.3493715  36.5876999  71.1053073  21.2228145  36.7531629
  65.1990140  15.2815772  41.5522966  65.5800651  14.5993943  41.9390840
  64.3953424  14.9925374  41.3698631  65.1366601  15.1382820  41.5827022
  62.4802716  25.8139748  32.2375789  63.2943355  26.1054640  32.1258560
  62.4161858  25.1599610  31.6634082  62.5905455  25.7604942  32.1364626
  68.7012207  28.4965744  46.6505365  68.4650844  27.6653808  46.5317425
  69.3455436  28.4451351  47.2360209  68.7606877  28.3663432  46.7191258
  58.3510625  29.2861265  37.3648101  58.9884572  29.0473013  37.9099894
  58.7765696  29.4898424  36.6301262  58.5086791  29.2812275  37.3365258
  58.9913440  24.5063555  31.7022990  59.3758592  24.2871261  32.4539536
  58.7425060  25.3326500  31.8324067  59.0115512  24.5961701  31.8324067
  59.1581980  17.7869970  51.4185575  58.8435421  18.5569533  51.1555137
  58.8371913  17.2240226  50.8337802  59.0640899  17.8180239  51.2926925
  69.7248627  28.2810192  42.7133659  69.4194444  29.0138249  43.0746975
  69.0054843  27.8748122  42.4326445  69.5735970  28.3291925  42.7246796
  60.7332097  29.7633688  39.0441887  60.8071105  29.6008859  39.8983737
  61.5501603  29.9523877  38.8002369  60.8648455  29.7670430  39.1339913
  75.4250419  24.9203193  42.0402003  75.3574920  24.9399152  41.1704590
  75.4106082  25.7633520  42.2657674  75.4129176  25.0476928  41.9454480
  56.7113877  16.1760491  37.0331771  55.8436303  16.2483091  37.0989380
  56.9989081  16.9782570  37.2219746  56.6253625  16.3054639  37.0706538
  65.8346766  16.3238351  45.3643093  66.5800358  16.1348161  44.9506518
  65.4184070  16.8496589  44.8056949  65.8831740  16.3740496  45.2207666
  59.2736682  32.7268431  33.7755361  59.5634981  32.3357412  33.0514587
  60.0040163  32.9085136  34.2160636  59.4243567  32.6962244  33.7338168
  73.2109037  23.6947579  40.3148598  73.7616958  23.0615648  40.5545690
  73.1953152  24.2262972  41.0064102  73.2894233  23.6796527  40.4527456
  59.8631428  27.5286177  44.8608491  59.3643121  28.2401944  44.9393380
  60.6731652  27.8486843  44.8226654  59.9087534  27.6813025  44.8665060
  56.1259545  26.7909130  39.1071212  55.8372794  26.1646601  39.6416939
  56.9942893  26.7329417  39.1735893  56.2119797  26.6896674  39.1962167
  66.9137443  21.9343913  39.4253194  66.5702209  21.2134248  39.7760444
  67.0130485  21.7257764  38.5831552  66.8779486  21.7968116  39.3524874
  59.3810554  36.0765203  35.6246203  60.0334612  35.5441645  35.8537229
  58.6836162  35.7233855  36.0114077  59.3741272  35.9454726  35.7158371
  56.3291818  28.4304381  35.0313577  57.0837786  28.8117420  35.2449040
  55.7362431  28.8815524  35.4860274  56.3528532  28.5533208  35.1296456
  67.3750472  28.3969617  34.9677182  67.9408505  29.0562827  34.8835725
  66.7278375  28.7419315  35.4393584  67.3629228  28.5451558  35.0249939
  58.7898486  20.3867221  50.1570790  57.9798261  20.6925001  50.0460632
  59.2673172  21.1072803  50.2723374  58.7401964  20.5381822  50.1577861
  57.6490045  29.6012942  40.4053693  57.1270799  29.7413234  41.0905557
  58.0364065  28.8423606  40.5955810  57.6293746  29.5098466  40.5354769
  54.6381229  19.6518751  34.4748647  54.3506025  19.2820021  33.7380595
  55.3251697  20.1213606  34.2132352  54.6970126  19.6665720  34.3263723
  63.8457050  31.3408401  34.3914261  63.6043726  30.6076262  33.9841326
  64.0258383  31.8895258  33.7380595  63.8364674  31.3130792  34.2344484
  59.0756371  26.6316961  35.8035184  58.8799153  27.2391696  35.2095487
  59.2990716  25.9384905  35.3226858  59.0791012  26.6194487  35.6451264
  57.4734901  23.5171699  35.9216052  58.1957553  23.6812857  35.4619858
  56.9942894  24.2381364  35.8155392  57.5098631  23.6469929  35.8381666
  65.4328408  19.8535498  41.3012737  64.5939509  19.8796777  41.0651000
  65.5032776  20.5006233  41.8818084  65.3196802  19.9531624  41.3521854
  55.1242517  25.9229771  45.0270192  55.6363614  26.2014025  44.3778952
  54.8378860  26.6619065  45.3933005  55.1577381  26.0732125  44.9860070
  63.8797687  16.7520875  36.0340353  64.5824039  16.5528623  35.5560311
  63.6141875  15.9796817  36.3409196  63.9444319  16.6083841  36.0085794
  69.3085932  25.0603485  38.5873979  69.2219907  25.2158911  39.4408758
  68.8536412  25.7041560  38.2133384  69.2289189  25.1779240  38.6581085
  52.2109424  20.4299963  35.3233928  52.3125560  21.2326125  35.6514904
  53.0065311  20.2287299  35.0257009  52.3437329  20.5185862  35.3269284
  58.6426243  18.0156160  45.0871233  58.4509440  18.0311294  45.9370657
  59.4924839  18.2119834  45.0637888  58.7401965  18.0470511  45.2094528
  53.0273156  20.5447141  43.0655050  52.8858648  19.6931082  43.1899558
  53.3113719  20.5875802  42.2417256  53.0481002  20.4246891  42.9622674
  63.1811748  22.3814232  37.2099538  62.9346463  22.3009983  38.0436327
  63.5096871  21.5967699  37.0162066  63.1932992  22.2540497  37.3047061
  67.0759797  29.0897591  40.9986319  66.9374156  29.7878637  41.5035062
  66.2959795  28.9346247  40.6422501  66.9403024  29.1697758  41.0212594
  65.4137882  25.3893966  47.2508701  65.4085921  24.5173783  47.2551128
  66.1198876  25.5882135  46.7778157  65.5182886  25.2897840  47.1815737
  59.1408776  25.1170950  46.6222521  59.2852151  25.6972158  45.9865631
  59.4884424  25.4947247  47.3272376  59.2136237  25.2591654  46.6321516
  61.3128693  24.3161119  44.4047653  60.5652007  24.5092133  43.9995931
  61.4670218  23.4906338  44.1671774  61.2251120  24.2226230  44.3093059
  58.2136530  33.3073722  43.4883548  58.3626094  32.7476638  42.8356953
  58.9936533  33.3865724  43.8716067  58.3510624  33.2359287  43.4480497
  68.5713170  28.4475845  31.7602819  68.1919979  27.6612983  31.7532108
  67.9079415  28.9962702  31.6174463  68.4171645  28.4120669  31.7383616
  60.7389831  33.4788365  44.7668039  60.6633502  32.8097175  45.3218827
  60.6679690  34.1806153  45.2808705  60.7170438  33.4833272  44.9244887
  61.5530470  18.2111669  45.2943057  62.0103084  18.9435644  45.4215849
  61.6286799  17.7878135  46.0530312  61.6321440  18.2568907  45.4244133
  53.7963461  18.4577489  46.3832500  53.2605651  17.8457847  46.6993268
  53.8581226  19.0325625  47.0366167  53.7259094  18.4524417  46.5267927
  66.0257796  11.3901544  39.1636900  66.1441364  11.8478008  38.4304202
  65.8519972  10.5846806  38.8773117  66.0176967  11.3395317  39.0137833
  61.3960078  31.9989364  35.5991645  62.1609969  31.7299008  35.2774309
  61.2938168  31.5139374  36.3161708  61.4941574  31.8878928  35.6571472
  59.4312848  20.2013773  42.1384881  58.6408923  20.0205233  42.4602216
  59.8273471  19.4240726  42.1215175  59.3729724  20.0601234  42.1837429
  63.9178739  29.0301548  27.5791594  64.6851724  29.0901673  27.1697446
  63.4710048  28.4581989  27.0947913  63.9652166  28.9538123  27.4469305
  64.8156534  27.8356203  39.8644327  64.1401536  27.6041436  40.3657714
  64.8248910  27.2277386  39.2386432  64.7175039  27.7115129  39.8460479
  61.9450678  22.6774032  46.6208380  61.8809819  23.5383989  46.4928516
  62.0847866  22.3606026  45.8203931  61.9566148  22.7574199  46.4836592
  66.8173269  30.6921336  32.0954505  66.8993106  31.4988322  31.7715955
  67.3023011  30.7117295  32.8195278  66.9010427  30.8141998  32.1541403
  60.6269772  25.3706172  40.7624582  60.2032021  25.5710671  40.0263601
  60.4514627  24.5235020  40.8748882  60.5380653  25.2754953  40.6698273
  55.9152217  25.8658223  36.1952555  56.0716836  25.8005026  37.0508547
  56.2552810  26.6406776  35.9831235  55.9885452  25.9707421  36.2907149
  62.4531362  25.2416107  35.0645918  62.9946907  24.7386488  35.5284539
  62.7677921  25.1881301  34.2535403  62.5795759  25.1595528  35.0129730
  66.3248469  29.4518754  52.1772830  67.1383334  29.1803903  52.3377963
  66.1643435  29.1526294  51.3733026  66.4218417  29.3673680  52.0818236
  60.6217811  30.6333458  32.3485946  60.6910632  29.7747997  32.4878947
  61.4006266  30.8505339  32.0204971  60.7470661  30.5386322  32.3203104
  63.6020631  20.1352411  45.1168219  63.8162600  19.4963325  44.5631573
  62.9854530  20.5798235  44.6876080  63.5425960  20.1062555  44.9718650
  65.0125299  33.0571160  36.5622440  64.6205091  32.7537875  35.8445306
  65.1678371  33.8940249  36.3727393  64.9778889  33.1354996  36.4278937
  52.4886478  23.0493174  36.5113322  52.8685443  23.4677719  35.8473589
  51.9141843  23.6306629  36.8182165  52.4597803  23.1971032  36.4590063
  65.7659719  21.7441476  46.0551526  64.9536401  21.4367367  46.1364698
  66.2249654  21.2640477  46.6194238  65.7140104  21.6277969  46.1506120
  65.1764974  29.6221148  36.5028470  64.8179628  29.7935791  37.2792503
  64.6903684  30.0834354  35.9456469  65.0523671  29.7160119  36.5353739
  62.9935360  13.2452347  40.1055561  62.1228918  13.2191068  40.0588871
  63.2475701  13.0729539  39.2881407  62.9028920  13.2162491  39.9775698
  59.9653339  25.3020314  29.0428704  60.2545864  26.0785196  29.3172279
  60.0525138  24.7909045  29.7443204  60.0207595  25.3412232  29.1871202
  62.8613226  23.1501548  50.8380228  63.3312858  23.7743664  51.2248102
  62.9075107  22.4818523  51.3973443  62.9381102  23.1436228  50.9780299
  60.0184500  15.2558575  41.5629032  59.5022989  14.5638767  41.6880611
  59.4578429  15.9229352  41.5091631  59.8591013  15.2521833  41.5735098
  62.0876734  15.7951535  43.3921884  61.7008487  15.8200567  44.1735414
  61.6009671  15.2293214  42.9396401  61.9589242  15.7147286  43.4409788
  66.3369713  30.5125044  47.4495671  66.9749433  30.0185240  47.1158127
  65.6943805  30.4402445  46.8647898  66.3363939  30.4284053  47.3138026
  68.0626713  22.3614190  42.0161587  67.6354321  22.2740539  41.2609686
  67.4252766  22.4691966  42.6016431  67.9056320  22.3646850  41.9907028
  61.7533875  12.6818521  45.6832144  62.3826993  13.2178821  45.4053215
  61.9219738  12.5895880  46.5345710  61.8711670  12.7479883  45.7680672
  61.5547790  17.4689716  47.9558556  62.3821219  17.1974864  48.0117170
  61.5755636  18.2650557  48.3122374  61.6800640  17.5469470  48.0173739
  66.3923970  31.2044853  44.0901028  67.1816348  30.8533917  44.2103109
  66.5667567  32.0181241  43.8277662  66.5344251  31.2730710  44.0688896
  56.1317280  24.6153578  41.1428817  55.2905287  24.5157453  41.3507710
  56.3407288  25.3849059  41.4943137  56.0381973  24.7145622  41.2256131
  53.6092847  22.2373115  38.9713567  53.2149545  22.3116127  38.1963677
  53.0532964  22.6231062  39.5221929  53.4695659  22.3054890  38.9381227
  65.2457794  15.2154409  38.6517446  65.4507387  15.1476717  39.4974443
  64.9184218  16.0213231  38.5838624  65.2273042  15.3240350  38.7677101
  59.9433945  22.5434978  40.3926414  59.6397082  21.9890966  40.9936822
  59.2413366  22.7227187  39.9054448  59.7950155  22.4879760  40.4096120
  59.0000042  19.8535497  34.9571116  59.2759776  19.1354410  34.5448683
  59.5998711  20.4520417  34.7492222  59.1293307  19.8355868  34.8651877
  58.0052296  29.7584698  45.0998512  57.8972651  29.7686760  45.9660570
  58.2148077  30.5839479  44.9103466  58.0202407  29.8825773  45.2002603
  68.4991481  15.7686174  38.1320212  67.8865795  16.2556576  38.5173943
  68.5955656  15.0929664  38.6757863  68.4229379  15.7404482  38.2699070
  62.5010562  17.5249015  33.2317711  62.9554309  17.6959575  33.9565555
  62.9750608  16.9117125  32.8315487  62.6378883  17.4599900  33.2791473
  56.0226088  27.0097341  42.5620449  55.4314021  27.6506839  42.5323465
  56.7847111  27.4334958  42.5351749  56.0474348  27.1673179  42.5535597
  56.4186711  18.1699338  43.2288467  56.8788192  18.2438268  43.9663591
  56.4642817  18.9680592  42.8788288  56.4937266  18.2993485  43.2861224
  58.0670060  18.8366033  47.7960494  57.6755626  18.1899380  48.2316272
  58.2355923  19.4277469  48.4154750  58.0340971  18.8280301  47.9523200
  72.1416509  26.8403110  43.5597728  72.1999633  27.2889759  44.3057704
  71.5082977  27.2501923  43.1227808  72.0567805  26.9676845  43.6050276
  65.7815604  32.4606652  39.9952474  65.5835293  32.9497467  39.3008685
  65.1603315  32.6647894  40.5736607  65.6603169  32.5623190  39.9775697
  59.8423582  24.2291549  34.3362718  60.5865627  24.6165825  34.5745668
  59.9884279  23.3848974  34.5003206  59.9734168  24.1622022  34.3956688
  61.7603158  16.0241808  39.3694580  60.9139203  16.1964616  39.2435929
  61.7574290  15.2191152  39.7060408  61.6350308  15.9302837  39.4005707
  62.8301458  19.8017022  40.2356638  62.3561413  19.2758784  40.7461948
  63.2019594  19.2546495  39.6671499  62.8151347  19.6433019  40.2271785
  53.2074488  21.7988529  45.6040183  54.0700101  21.6984238  45.5177513
  52.8766271  21.2183238  45.0425755  53.2859685  21.6980156  45.5085589
  69.0938189  24.8619398  41.6463418  68.8536412  24.0225813  41.6505844
  69.5730196  24.9419565  42.3704192  69.1290373  24.7500798  41.7538220
  64.7584958  20.6953577  33.2982391  64.2307977  20.7782321  32.6088100
  65.2180666  21.4371448  33.2947036  64.7486808  20.8174239  33.1957086
  71.0943376  21.6420855  39.5992677  70.8553146  21.6016689  38.7613462
  71.2577277  22.4892007  39.7258398  71.0833679  21.7612940  39.4946159
  67.6989406  26.0270805  45.5297722  68.4223605  25.5743331  45.3508742
  67.4339368  26.3075470  44.7470050  67.7670679  26.0021773  45.3876438
  56.5676274  20.6230978  42.2650601  55.9429345  20.6349370  41.6576554
  56.2321869  21.0991153  42.9141842  56.4261766  20.6949495  42.2707170
  56.7518023  18.9656097  28.3223286  56.4030827  19.6175822  28.7854836
  56.2714469  18.9513210  27.5947158  56.6288267  19.0599150  28.2834378
  53.2801950  28.6831438  43.7054366  52.7501874  27.9923877  43.7549341
  53.5527043  28.6741623  42.8767074  53.2426672  28.5798570  43.5901782
  64.3122040  29.2657141  32.4292048  65.0356239  29.7315253  32.2856622
  63.8722631  29.3330750  31.6789645  64.3537733  29.3440977  32.2976830
  63.4808196  26.1254683  43.6792737  62.8665189  25.5812733  43.9741373
  63.9975480  25.6118919  43.1998553  63.4663858  25.9691092  43.6516966
  62.7204493  27.1958953  41.4137036  62.2932101  26.5708671  40.9802471
  62.7129437  26.9133875  42.2396043  62.6563634  27.0611733  41.4716864
  55.8367020  22.2324126  44.4825470  55.9960507  21.4767450  44.8877192
  55.6559913  22.7815065  45.1366208  55.8332379  22.2017940  44.6388176
  63.7787323  14.3985361  45.0376259  63.2827884  14.5949036  44.3467826
  64.5356385  14.7978030  44.8665061  63.8174147  14.4863095  44.9096396
  61.0490202  18.0727707  41.6279570  61.0732690  17.5387820  40.9392350
  61.3001676  17.5645016  42.2905161  61.0900121  17.9188611  41.6244215
  57.3291525  16.7998526  41.0085314  57.3689896  17.3007732  41.7220022
  56.5041189  16.8908919  40.7391237  57.2131051  16.8880342  41.0735853
  59.5121138  26.3659266  49.1105609  58.6616768  26.5030980  49.2463254
  59.6749265  25.6323044  49.5553311  59.4105001  26.2773367  49.1961208
  58.7505888  23.3159035  43.3059213  57.9197818  23.4832853  43.0994461
  58.6957405  22.9394986  44.0908099  58.6195303  23.2848767  43.3907741
  56.5589671  16.8067928  48.9415624  57.1842375  16.2630061  49.2145056
  56.1040151  16.3262846  48.3723414  56.5837932  16.6557410  48.8977218
  57.1241932  21.5914627  33.8349331  57.2644893  22.0887091  34.5377972
  57.6224465  20.8900921  33.9763545  57.2183013  21.5616606  33.9600910
  57.1542154  22.4581738  31.1641908  57.7887234  23.0542163  31.0991370
  57.2367765  22.1585196  31.9787778  57.2598705  22.5022646  31.2744994
  70.1324720  24.9897215  44.0328272  70.7242560  25.6294466  44.0646470
  70.5683715  24.2920252  44.3220339  70.2843151  24.9815566  44.0809105
  58.7321137  18.3895713  31.1387350  59.0536978  17.9098796  30.4846612
  58.9948081  19.1995359  30.9478161  58.8187162  18.4385611  31.0142842
  61.9618110  29.4114588  44.6586166  61.4543201  29.9650435  45.1026796
  61.6644756  29.4722878  43.8404940  61.8422995  29.5020899  44.6034623
  64.1280292  17.7767907  43.5010829  64.5535364  17.3240434  42.8894355
  63.5137285  17.2227978  43.7775616  64.1008937  17.6281884  43.4515854
  53.6595142  24.6549579  34.4331454  54.1687371  25.2514086  34.8142759
  54.1329414  24.3875552  33.7507873  53.8038518  24.7035394  34.3885977
  64.5725890  33.3277845  32.5890109  63.8555200  33.1538708  32.1237347
  65.2232628  33.0930418  32.0565595  64.5627741  33.2673638  32.4419327
  62.5674515  14.2483007  36.9101406  61.9242833  14.0980653  37.4786544
  62.2273922  14.0025352  36.1450511  62.4219592  14.1895130  36.8804421
  67.1573861  22.2042434  36.3331415  66.4865051  22.7472136  36.2044480
  67.8513612  22.6737289  36.0913109  67.1602729  22.3540705  36.2786942
  61.2060595  34.3439146  41.5643173  60.9826250  33.5857975  41.9327199
  60.7170438  34.3737167  40.8423613  61.1004044  34.2361370  41.5119914
  67.3201989  18.6598318  39.2421788  67.6729599  18.2328041  39.9167586
  66.4616790  18.5749161  39.3722864  67.2451433  18.5843058  39.3616798
  56.0185674  21.2905837  37.3004634  55.2997663  21.7069970  37.5677498
  56.3898036  21.8560076  36.7496272  55.9677606  21.4355119  37.2587441
  65.3185255  21.9233686  43.1906630  65.2983182  21.7416981  44.0441409
  65.3664455  22.7945705  43.1666214  65.3219896  22.0250224  43.3129925
  63.2631584  28.5120878  49.1155107  63.2227439  27.8670555  48.5300262
  64.0754903  28.4557496  49.4280519  63.3774738  28.4079845  49.0752056
  59.8539052  34.5639604  39.0180257  59.4399451  33.9013734  38.6284099
  60.5386426  34.7117463  38.4975952  59.8937424  34.4880262  38.8836755
  63.2204346  33.7229689  39.7703874  62.8220629  33.8331960  39.0024694
  62.6055566  33.9311756  40.3530434  63.0703235  33.7703257  39.7435173
  61.7932248  20.3303837  32.6378014  61.1997087  20.6520834  32.0862581
  61.8307526  19.4844933  32.4299120  61.7106637  20.2528165  32.5260785
  68.7526049  13.7816729  40.1706100  68.2456914  13.0745869  40.1027278
  69.5493483  13.4509918  40.3007177  68.7953288  13.6289881  40.1805095
  64.6690065  20.2883342  36.0679764  64.4403758  20.3116043  35.2258122
  64.9288141  19.4640809  36.1874775  64.6736253  20.1699422  35.9604962
  58.9509293  22.1417815  45.6704864  58.4388196  21.5338998  46.0289896
  58.7788789  22.8574407  46.1378840  58.8498930  22.1581114  45.7921088
  53.7975008  20.5855390  48.3207226  53.6277598  21.2456765  47.7755433
  53.3540958  20.7961951  49.0419715  53.7074342  20.7141372  48.3468855
  57.7234827  18.8259888  37.3633960  58.1992194  19.1876968  36.7284141
  57.2223427  19.4816356  37.6434102  57.7200186  18.9754077  37.3110701
  70.9546189  28.2981656  33.1546965  71.3379795  29.0473012  33.3845062
  70.1590302  28.5447476  32.8958954  70.8939971  28.4451350  33.1504538
  62.8278364  20.0642059  48.1107120  63.3849794  19.8355869  47.4785585
  62.5039429  20.8247725  47.8342332  62.8624774  20.1425896  47.9763617
  60.5461481  23.1509713  49.0759127  61.2972808  23.4661389  49.3898681
  60.7384057  22.9488884  48.2493049  60.6852895  23.1677094  49.0002523
  59.7661480  20.9701088  30.7307344  60.1460445  20.9880717  29.9458458
  59.0254076  21.4155077  30.6098191  59.7130318  21.0382862  30.5970912
  67.3946771  19.2783279  36.3182922  67.3940997  19.1231936  37.1767199
  67.1902951  20.1246266  36.2624308  67.3646549  19.3803900  36.4370862
  65.1187623  23.9580781  39.9719129  65.6141288  23.2403776  39.9323149
  64.3087399  23.6551578  39.8573616  65.0731516  23.8078427  39.9492855
  60.5646235  27.8078594  32.1216134  59.7557557  27.4845268  32.0749443
  61.0721143  27.1011816  32.0544382  60.5195901  27.6559910  32.1046428
  67.1839442  26.7084468  42.6596258  67.6094513  26.1858890  42.1066683
  66.8196362  27.3065306  42.1384881  67.1926044  26.7194695  42.5005268
  63.7718041  30.4218733  38.9897415  64.2429220  31.1358995  39.1587401
  64.1078220  29.8217483  39.5257285  63.8913156  30.4390197  39.0929791
  65.8595026  32.0320046  51.1689487  65.9691991  31.2428606  51.5246235
  66.1885923  31.9425982  50.3663826  65.9247432  31.9025899  51.1031878
  60.6887536  15.1946203  45.9455510  60.8215442  14.3977197  46.2736486
  61.0732689  15.7212606  46.5253786  60.7643865  15.1546120  46.0799013
  64.4091988  30.2136667  45.7525108  63.8612934  29.5894550  45.4845173
  64.8705016  30.4030939  45.0369187  64.3959197  30.1495717  45.6075539
  63.7619891  12.1176529  42.5436603  62.9565855  12.0074259  42.8604442
  63.6326627  12.2188985  41.6866469  63.6240024  12.1160199  42.4644644
  67.2185852  18.2822021  43.1376300  66.6348841  18.7831228  42.7253868
  67.5390146  17.7751577  42.5040624  67.1799027  18.2813856  42.9834808
  59.7580651  17.1962616  33.4134975  60.5796345  17.3660929  33.1716670
  59.2950302  17.3509877  32.6901273  59.8111813  17.2444349  33.2706619
  58.3475983  15.1905378  44.1933404  58.8920396  14.8496505  44.7837746
  58.4012919  16.0490840  44.3354689  58.4365102  15.2660638  44.3015277
  54.1606542  28.9521794  41.0672212  54.7651399  28.9117628  40.4386033
  53.9533854  29.7992946  41.0976268  54.2195439  29.0709797  40.9788328
  63.9750314  31.2187739  42.2834449  64.7948688  31.0750705  42.5450744
  63.6944392  31.8433938  42.8250887  64.0547057  31.2898091  42.4022389
  73.6463649  37.9628242  40.0030256  72.7901545  38.1236740  40.0539373
  73.6931303  37.0920306  40.0235317  73.5262761  37.8579044  40.0136322
  68.0304789  47.4990960  35.7667488  67.2787688  47.1206498  35.5383533
  68.4790801  47.5309394  35.0186298  67.9854456  47.4476567  35.6224990
  76.9557366  44.2314768  49.6090712  77.6624133  43.7366798  49.7377647
  77.1445301  44.6723849  48.8793370  77.0885271  44.2233118  49.5199758
  73.4829749  47.9216329  31.1953035  73.1481117  48.5993251  30.7597257
  73.9956619  47.5321641  30.6069906  73.5095330  47.9640908  31.0439826
  73.0234040  49.8730598  37.1364146  73.4073419  50.4417497  36.5968921
  72.9593181  49.1480108  36.6569962  73.0707467  49.8506062  36.9858009
  76.4915470  40.0220286  42.6461908  77.0371430  40.7005373  42.7055877
  76.4332347  39.8807747  41.7863489  76.5631385  40.1012288  42.5273968
  69.6089545  47.5109352  38.0330260  69.7099908  46.7009706  38.3427388
  69.0131290  47.4166299  37.4029939  69.5362084  47.3774380  37.9856499
  69.4490285  52.4286941  39.4345116  70.0927740  52.8700105  39.8241275
  69.7746540  51.6240367  39.3475375  69.5922113  52.3752136  39.4790593
  65.1044677  35.7015369  40.5566901  64.4849708  35.1108017  40.3876916
  65.0028540  36.2926805  39.9231225  64.9982352  35.7019452  40.4371891
  70.1510864  45.4398916  34.8064978  70.4726705  45.9804123  34.2026286
  70.7982961  44.8695688  34.9387268  70.2936920  45.4358091  34.7372013
  72.2012572  37.4414911  34.8899365  72.8992737  37.6203039  35.3820828
  72.5164905  36.9185250  34.2669754  72.3507910  37.3908683  34.8701375
  72.3900508  43.8285356  34.8779156  72.8294143  43.2202457  35.3233929
  72.2405171  43.4492729  34.1064621  72.4321974  43.6823827  34.8298323
  69.8572151  42.4229368  42.0797982  70.5021153  41.9301811  41.7608930
  70.0973928  42.5654155  42.9064060  69.9882736  42.3706810  42.1547515
  72.3958242  45.2684274  41.7304874  72.6781485  44.4735680  41.5091630
  73.1244403  45.7464861  41.7509935  72.5447806  45.2218871  41.7007889
  70.3739436  32.8107308  38.9720639  70.0442766  33.2618451  38.3024338
  69.6984438  32.7323471  39.5193646  70.2249872  32.8658443  38.9543862
  75.9909844  42.1812537  31.8309925  75.9061139  43.0373504  31.9759494
  76.4794228  41.9056861  32.4992084  76.0498742  42.2669859  31.9512007
  77.5815844  28.7992831  37.2170250  77.2669285  29.4896309  37.6490672
  77.0642785  28.7437613  36.5155750  77.4580314  28.8927719  37.1767199
  76.9228278  38.7997332  33.3307660  76.3939749  39.0156965  33.9904967
  77.4453298  39.4933470  33.2508630  76.9216731  38.9340468  33.4163260
  68.8127885  42.6960548  32.1315128  68.2285101  43.2010580  32.5380992
  68.4097981  42.4702935  31.3911720  68.6667189  42.7368797  32.0820154
  64.3671914  48.4115309  38.9338800  63.8839492  49.1365799  38.9098383
  65.1795232  48.7091440  39.0448958  64.4162662  48.5617663  38.9466079
  70.4386068  47.2047490  41.5388614  69.9213010  46.8454905  40.9349922
  71.1360459  46.6809665  41.5494680  70.4651649  47.0745178  41.4518873
  74.0949660  47.6542304  47.5004787  74.1833006  47.4668445  48.3482998
  74.5239373  47.0079734  47.1009634  74.1711762  47.5305312  47.5676539
  71.6620120  46.9373464  46.4822450  71.0990955  46.5246074  47.0062111
  72.4241143  46.8626370  46.9015593  71.6914568  46.8650865  46.6215450
  73.2705100  38.9426200  30.6084049  73.5101104  39.1504184  29.7959392
  73.5920941  38.1383709  30.7172993  73.3542258  38.8540302  30.5044602
  68.5795390  30.8719596  34.4543587  69.3341358  31.2397913  34.2160637
  68.4022925  31.2459151  35.2222766  68.6649868  30.9817784  34.5328475
  67.2216111  48.9271485  39.0859080  67.9236691  48.4123474  39.1431836
  67.1413594  49.2545637  39.8905955  67.3139872  48.8985712  39.2131872
  68.2695018  39.1647072  48.2139495  68.4415522  39.0552967  49.0624776
  68.8064375  39.8101478  47.9770687  68.3740022  39.2439074  48.3044592
  66.9352455  33.2789915  31.1521700  66.7528028  33.4961796  30.3262693
  67.7978068  33.3928928  31.2080314  67.0357044  33.3279813  31.0376187
  67.1719590  45.5378713  42.8957993  67.7117815  45.3949844  43.5661366
  66.4889536  45.9375463  43.2642020  67.1511744  45.5758383  43.0492415
  72.6152174  30.2816326  34.1870724  73.3438334  30.1032281  33.7408880
  72.7047067  31.1234406  34.3977902  72.7358836  30.3800204  34.1524241
  76.5960475  41.2169713  38.0903018  77.3517990  41.6501228  38.1291926
  76.7022799  40.5674483  38.6637654  76.7230645  41.1847197  38.1801043
  74.2069719  47.0851323  50.1648571  74.9910136  47.1982171  50.5304313
  74.0066314  46.2592460  50.3607257  74.2935745  46.9798043  50.2482957
  66.4814482  36.5564088  29.6644173  65.7672659  36.2702267  30.0766605
  66.9658450  36.8960714  30.3050560  66.4473845  36.5645737  29.8199808
  67.3255341  35.2957382  45.6959423  66.6327138  34.8254361  45.9420154
  67.9415668  35.0695686  46.2701130  67.3139871  35.1924513  45.8168575
  74.3640113  48.9961425  43.8115027  73.5655358  48.7560925  44.0688895
  74.8126124  49.0475818  44.5582074  74.3114724  48.9683816  43.9599951
  73.6561800  45.0594042  30.0405981  74.0712948  44.7279066  29.3490477
  72.8253729  44.8262944  29.9126118  73.5949808  44.9765298  29.9196829
  66.0495900  39.2622786  46.8386268  66.7735872  39.2475816  47.3251162
  66.1512037  39.9718141  46.3408236  66.1714109  39.3647489  46.8365055
  73.4240850  42.7421870  51.7035215  72.6313830  43.0565382  51.8887834
  73.5389777  42.9573339  50.8655999  73.3236260  42.8205707  51.6073550
  76.0972168  39.4655861  35.9930231  76.1919023  40.2045155  36.4469856
  75.4731012  39.0373337  36.4264795  76.0181199  39.5117182  36.1238378
  74.3524642  42.6442074  46.6420511  74.9263504  42.0069318  46.7969075
  74.2739446  42.6446156  45.7730169  74.4257877  42.5507185  46.5366922
  76.3495190  41.3104601  29.2267183  76.2675352  41.3806788  30.0922170
  76.9874910  41.8734345  29.0350923  76.4315027  41.4043572  29.3257132
  69.7088361  41.0765339  38.6941709  69.4507605  40.2437074  38.6673008
  69.7636844  41.3022952  37.8534209  69.6788139  40.9863110  38.5661846
  74.7889411  33.1793790  38.7945802  74.0845738  32.6902975  38.9529721
  74.8374385  33.1916264  37.9234246  74.6919463  33.1083438  38.6885141
  68.6823073  38.6303102  39.1806604  68.1072664  38.7895270  39.8170565
  68.3058749  37.9938511  38.7175054  68.5425885  38.5600915  39.2061162
  72.3496362  37.1026451  44.0398982  71.9610794  36.6780669  43.3851173
  71.6851060  37.3508601  44.5476009  72.1943290  37.0765172  44.0186850
  76.1722723  30.8001080  41.5522966  76.5533235  30.1179251  41.9390840
  75.3686008  30.5110682  41.3698631  76.1099185  30.6568128  41.5827022
  73.4535300  41.3325055  32.2375789  74.2675939  41.6239948  32.1258560
  73.3894441  40.6784918  31.6634082  73.5638039  41.2790250  32.1364626
  69.3243208  44.8046573  37.3648101  69.9617155  44.5658320  37.9099894
  69.7498280  45.0083732  36.6301262  69.4819375  44.7997583  37.3365258
  69.9646023  40.0248863  31.7022990  70.3491176  39.8056569  32.4539536
  69.7157644  40.8511808  31.8324067  69.9848096  40.1147009  31.8324067
  70.1314564  33.3055278  51.4185575  69.8168005  34.0754841  51.1555137
  69.8104496  32.7425534  50.8337802  70.0373483  33.3365547  51.2926925
  71.7064680  45.2818996  39.0441887  71.7803688  45.1194167  39.8983737
  72.5234187  45.4709185  38.8002369  71.8381039  45.2855738  39.1339913
  67.6846461  31.6945799  37.0331771  66.8168886  31.7668399  37.0989380
  67.9721665  32.4967878  37.2219746  67.5986209  31.8239946  37.0706538
  76.8079349  31.8423659  45.3643093  77.5532941  31.6533469  44.9506518
  76.3916654  32.3681897  44.8056949  76.8564324  31.8925804  45.2207666
  70.2469266  48.2453739  33.7755361  70.5367564  47.8542720  33.0514587
  70.9772747  48.4270444  34.2160636  70.3976150  48.2147552  33.7338168
  70.8364011  43.0471485  44.8608491  70.3375705  43.7587252  44.9393380
  71.6464235  43.3672151  44.8226654  70.8820118  43.1998333  44.8665060
  68.1875182  50.2221121  36.8415510  67.9675477  49.9318476  37.6342177
  67.9669704  49.5636076  36.3133423  68.1222776  50.0820829  36.8804419
  77.8870027  37.4529221  39.4253194  77.5434792  36.7319556  39.7760444
  77.9863069  37.2443072  38.5831552  77.8512069  37.3153424  39.3524874
  70.3543137  51.5950511  35.6246203  71.0067195  51.0626953  35.8537229
  69.6568746  51.2419163  36.0114077  70.3473855  51.4640034  35.7158371
  69.7631069  35.9052529  50.1570790  68.9530845  36.2110309  50.0460632
  70.2405756  36.6258111  50.2723374  69.7134548  36.0567130  50.1577861
  68.6222629  45.1198250  40.4053693  68.1003382  45.2598542  41.0905557
  69.0096649  44.3608914  40.5955810  68.6026330  45.0283774  40.5354769
  65.6113813  35.1704059  34.4748647  65.3238608  34.8005329  33.7380595
  66.2984281  35.6398914  34.2132352  65.6702710  35.1851028  34.3263723
  74.8189634  46.8593709  34.3914261  74.5776310  46.1261570  33.9841326
  74.9990967  47.4080566  33.7380595  74.8097258  46.8316100  34.2344484
  70.0488954  42.1502269  35.8035184  69.8531737  42.7577003  35.2095487
  70.2723300  41.4570213  35.3226858  70.0523595  42.1379794  35.6451264
  68.4467484  39.0357007  35.9216052  69.1690136  39.1998165  35.4619858
  67.9675477  39.7566672  35.8155392  68.4831215  39.1655236  35.8381666
  76.4060992  35.3720806  41.3012737  75.5672093  35.3982085  41.0651000
  76.4765359  36.0191541  41.8818084  76.2929385  35.4716931  41.3521854
  66.0975101  41.4415079  45.0270192  66.6096198  41.7199333  44.3778952
  65.8111444  42.1804373  45.3933005  66.1309964  41.5917433  44.9860070
  74.8530270  32.2706183  36.0340353  75.5556623  32.0713931  35.5560311
  74.5874459  31.4982125  36.3409196  74.9176902  32.1269149  36.0085794
  63.1842007  35.9485271  35.3233928  63.2858144  36.7511433  35.6514904
  63.9797894  35.7472607  35.0257009  63.3169913  36.0371170  35.3269284
  69.6158826  33.5341468  45.0871233  69.4242023  33.5496602  45.9370657
  70.4657422  33.7305142  45.0637888  69.7134548  33.5655819  45.2094528
  64.0005739  36.0632449  43.0655050  63.8591231  35.2116390  43.1899558
  64.2846303  36.1061110  42.2417256  64.0213586  35.9432199  42.9622674
  74.1544332  37.8999540  37.2099538  73.9079046  37.8195290  38.0436327
  74.4829455  37.1153007  37.0162066  74.1665575  37.7725805  37.3047061
  78.0492381  44.6082899  40.9986319  77.9106740  45.3063945  41.5035062
  77.2692379  44.4531555  40.6422501  77.9135607  44.6883066  41.0212594
  76.3870466  40.9079274  47.2508701  76.3818504  40.0359091  47.2551128
  77.0931460  41.1067443  46.7778157  76.4915470  40.8083148  47.1815737
  70.1141359  40.6356258  46.6222521  70.2584735  41.2157466  45.9865631
  70.4617008  41.0132555  47.3272376  70.1868820  40.7776962  46.6321516
  72.2861276  39.8346427  44.4047653  71.5384590  40.0277441  43.9995931
  72.4402802  39.0091646  44.1671774  72.1983704  39.7411538  44.3093059
  69.1869114  48.8259030  43.4883548  69.3358678  48.2661946  42.8356953
  69.9669116  48.9051032  43.8716067  69.3243208  48.7544595  43.4480497
  71.7122415  48.9973673  44.7668039  71.6366086  48.3282483  45.3218827
  71.6412274  49.6991461  45.2808705  71.6903022  49.0018580  44.9244887
  72.5263053  33.7296977  45.2943057  72.9835668  34.4620952  45.4215849
  72.6019382  33.3063442  46.0530312  72.6054023  33.7754215  45.4244133
  64.7696045  33.9762797  46.3832500  64.2338234  33.3643155  46.6993268
  64.8313809  34.5510933  47.0366167  64.6991677  33.9709725  46.5267927
  76.9990379  26.9086852  39.1636900  77.1173948  27.3663316  38.4304202
  76.8252555  26.1032114  38.8773117  76.9909550  26.8580625  39.0137833
  72.3692662  47.5174672  35.5991645  73.1342553  47.2484315  35.2774309
  72.2670752  47.0324682  36.3161708  72.4674157  47.4064236  35.6571472
  70.4045431  35.7199081  42.1384881  69.6141506  35.5390541  42.4602216
  70.8006054  34.9426034  42.1215175  70.3462308  35.5786542  42.1837429
  74.8911322  44.5486855  27.5791594  75.6584307  44.6086980  27.1697446
  74.4442631  43.9767297  27.0947913  74.9384749  44.4723431  27.4469305
  75.7889118  43.3541511  39.8644327  75.1134119  43.1226744  40.3657714
  75.7981494  42.7462694  39.2386432  75.6907622  43.2300437  39.8460479
  72.9183262  38.1959340  46.6208380  72.8542403  39.0569297  46.4928516
  73.0580449  37.8791333  45.8203931  72.9298732  38.2759507  46.4836592
  77.7905852  46.2106644  32.0954505  77.8725690  47.0173630  31.7715955
  78.2755594  46.2302603  32.8195278  77.8743010  46.3327306  32.1541403
  71.6002356  40.8891480  40.7624582  71.1764605  41.0895979  40.0263601
  71.4247211  40.0420328  40.8748882  71.5113236  40.7940261  40.6698273
  71.1014049  52.4041993  43.2246040  71.5909979  51.7052782  43.0421704
  70.5298281  52.1065863  43.8122097  71.0898579  52.2568216  43.2847081
  66.8884801  41.3843531  36.1952555  67.0449420  41.3190334  37.0508547
  67.2285394  42.1592084  35.9831235  66.9618035  41.4892729  36.2907149
  73.4263945  40.7601415  35.0645918  73.9679491  40.2571796  35.5284539
  73.7410504  40.7066609  34.2535403  73.5528342  40.6780836  35.0129730
  77.2981053  44.9704062  52.1772830  78.1115918  44.6989211  52.3377963
  77.1376019  44.6711602  51.3733026  77.3951001  44.8858988  52.0818236
  71.5950395  46.1518766  32.3485946  71.6643215  45.2933305  32.4878947
  72.3738850  46.3690647  32.0204971  71.7203245  46.0571630  32.3203104
  74.5753215  35.6537719  45.1168219  74.7895184  35.0148633  44.5631573
  73.9587114  36.0983543  44.6876080  74.5158544  35.6247863  44.9718650
  75.9857882  48.5756467  36.5622440  75.5937674  48.2723183  35.8445306
  76.1410955  49.4125557  36.3727393  75.9511472  48.6540304  36.4278937
  63.4619062  38.5678482  36.5113322  63.8418027  38.9863026  35.8473589
  62.8874427  39.1491937  36.8182165  63.4330387  38.7156340  36.4590063
  76.7392303  37.2626784  46.0551526  75.9268984  36.9552675  46.1364698
  77.1982237  36.7825784  46.6194238  76.6872687  37.1463277  46.1506120
  76.1497557  45.1406456  36.5028470  75.7912212  45.3121099  37.2792503
  75.6636268  45.6019662  35.9456469  76.0256254  45.2345427  36.5353739
  73.9667943  28.7637655  40.1055561  73.0961501  28.7376376  40.0588871
  74.2208284  28.5914847  39.2881407  73.8761503  28.7347799  39.9775698
  70.9385923  40.8205622  29.0428704  71.2278447  41.5970504  29.3172279
  71.0257721  40.3094353  29.7443204  70.9940179  40.8597540  29.1871202
  73.8345810  38.6686856  50.8380228  74.3045441  39.2928972  51.2248102
  73.8807690  38.0003831  51.3973443  73.9113686  38.6621536  50.9780299
  70.9917084  30.7743883  41.5629032  70.4755572  30.0824075  41.6880611
  70.4311013  31.4414660  41.5091631  70.8323597  30.7707141  41.5735098
  73.0609317  31.3136843  43.3921884  72.6741070  31.3385875  44.1735414
  72.5742254  30.7478522  42.9396401  72.9321826  31.2332594  43.4409788
  77.3102297  46.0310352  47.4495671  77.9482017  45.5370548  47.1158127
  76.6676388  45.9587753  46.8647898  77.3096523  45.9469361  47.3138026
  72.7266459  28.2003829  45.6832144  73.3559577  28.7364129  45.4053215
  72.8952322  28.1081188  46.5345710  72.8444253  28.2665191  45.7680672
  72.5280374  32.9875023  47.9558556  73.3553803  32.7160172  48.0117170
  72.5488220  33.7835865  48.3122374  72.6533224  33.0654778  48.0173739
  77.3656553  46.7230161  44.0901028  78.1548931  46.3719225  44.2103109
  77.5400151  47.5366549  43.8277662  77.5076835  46.7916018  44.0688896
  67.1049864  40.1338886  41.1428817  66.2637870  40.0342760  41.3507710
  67.3139872  40.9034367  41.4943137  67.0114556  40.2330930  41.2256131
  64.5825431  37.7558423  38.9713567  64.1882128  37.8301435  38.1963677
  64.0265547  38.1416370  39.5221929  64.4428243  37.8240198  38.9381227
  76.2190377  30.7339717  38.6517446  76.4239971  30.6662025  39.4974443
  75.8916801  31.5398538  38.5838624  76.2005625  30.8425658  38.7677101
  70.9166528  38.0620285  40.3926414  70.6129666  37.5076274  40.9936822
  70.2145949  38.2412495  39.9054448  70.7682738  38.0065068  40.4096120
  69.9732626  35.3720805  34.9571116  70.2492360  34.6539718  34.5448683
  70.5731295  35.9705725  34.7492222  70.1025890  35.3541176  34.8651877
  68.9784879  45.2770006  45.0998512  68.8705234  45.2872068  45.9660570
  69.1880661  46.1024787  44.9103466  68.9934990  45.4011081  45.2002603
  73.4743146  33.0434323  33.2317711  73.9286893  33.2144883  33.9565555
  73.9483192  32.4302433  32.8315487  73.6111466  32.9785208  33.2791473
  67.3919294  33.6884646  43.2288467  67.8520776  33.7623576  43.9663591
  67.4375401  34.4865900  42.8788288  67.4669850  33.8178793  43.2861224
  69.0402644  34.3551341  47.7960494  68.6488209  33.7084688  48.2316272
  69.2088507  34.9462776  48.4154750  69.0073554  34.3465609  47.9523200
  76.7548188  47.9791960  39.9952474  76.5567876  48.4682775  39.3008685
  76.1335899  48.1833202  40.5736607  76.6335752  48.0808498  39.9775697
  70.8156166  39.7476857  34.3362718  71.5598211  40.1351133  34.5745668
  70.9616862  38.9034282  34.5003206  70.9466751  39.6807330  34.3956688
  72.7335741  31.5427116  39.3694580  71.8871787  31.7149924  39.2435929
  72.7306874  30.7376460  39.7060408  72.6082891  31.4488145  39.4005707
  73.8034042  35.3202330  40.2356638  73.3293996  34.7944092  40.7461948
  74.1752178  34.7731803  39.6671499  73.7883931  35.1618327  40.2271785
  64.1807072  37.3173837  45.6040183  65.0432685  37.2169546  45.5177513
  63.8498855  36.7368546  45.0425755  64.2592268  37.2165464  45.5085589
  75.7317542  36.2138885  33.2982391  75.2040560  36.2967629  32.6088100
  76.1913250  36.9556756  33.2947036  75.7219392  36.3359547  33.1957086
  67.5408858  36.1416286  42.2650601  66.9161928  36.1534678  41.6576554
  67.2054453  36.6176461  42.9141842  67.3994350  36.2134803  42.2707170
  67.7250607  34.4841404  28.3223286  67.3763411  35.1361130  28.7854836
  67.2447053  34.4698518  27.5947158  67.6020851  34.5784458  28.2834378
  75.2854624  44.7842448  32.4292048  76.0088823  45.2500561  32.2856622
  74.8455215  44.8516058  31.6789645  75.3270316  44.8626285  32.2976830
  74.4540779  41.6439991  43.6792737  73.8397772  41.0998041  43.9741373
  74.9708064  41.1304227  43.1998553  74.4396442  41.4876400  43.6516966
  73.6937076  42.7144261  41.4137036  73.2664684  42.0893979  40.9802471
  73.6862021  42.4319183  42.2396043  73.6296217  42.5797041  41.4716864
  66.8099603  37.7509434  44.4825470  66.9693090  36.9952758  44.8877192
  66.6292497  38.3000373  45.1366208  66.8064962  37.7203248  44.6388176
  74.7519906  29.9170669  45.0376259  74.2560468  30.1134344  44.3467826
  75.5088968  30.3163338  44.8665061  74.7906731  30.0048403  44.9096396
  72.0222786  33.5913015  41.6279570  72.0465273  33.0573128  40.9392350
  72.2734260  33.0830324  42.2905161  72.0632705  33.4373919  41.6244215
  68.3024108  32.3183834  41.0085314  68.3422480  32.8193040  41.7220022
  67.4773773  32.4094227  40.7391237  68.1863634  32.4065650  41.0735853
  70.4853721  41.8844573  49.1105609  69.6349352  42.0216288  49.2463254
  70.6481849  41.1508352  49.5553311  70.3837585  41.7958675  49.1961208
  69.7238472  38.8344343  43.3059213  68.8930401  39.0018161  43.0994461
  69.6689989  38.4580294  44.0908099  69.5927886  38.8034075  43.3907741
  67.5322255  32.3253236  48.9415624  68.1574958  31.7815369  49.2145056
  67.0772735  31.8448154  48.3723414  67.5570515  32.1742718  48.8977218
  68.0974515  37.1099935  33.8349331  68.2377476  37.6072399  34.5377972
  68.5957048  36.4086229  33.9763545  68.1915596  37.0801914  33.9600910
  68.1274738  37.9767046  31.1641908  68.7619817  38.5727471  31.0991370
  68.2100349  37.6770504  31.9787778  68.2331289  38.0207954  31.2744994
  69.7053721  33.9081021  31.1387350  70.0269562  33.4284104  30.4846612
  69.9680664  34.7180667  30.9478161  69.7919746  33.9570919  31.0142842
  72.9350693  44.9299896  44.6586166  72.4275785  45.4835742  45.1026796
  72.6377340  44.9908186  43.8404940  72.8155578  45.0206207  44.6034623
  75.1012876  33.2953215  43.5010829  75.5267947  32.8425742  42.8894355
  74.4869869  32.7413286  43.7775616  75.0741521  33.1467191  43.4515854
  75.5458474  48.8463153  32.5890109  74.8287783  48.6724016  32.1237347
  76.1965211  48.6115726  32.0565595  75.5360324  48.7858946  32.4419327
  73.5407098  29.7668315  36.9101406  72.8975416  29.6165961  37.4786544
  73.2006505  29.5210660  36.1450511  73.3952176  29.7080438  36.8804421
  78.1306445  37.7227742  36.3331415  77.4597635  38.2657444  36.2044480
  78.8246195  38.1922597  36.0913109  78.1335312  37.8726013  36.2786942
  72.1793179  49.8624454  41.5643173  71.9558833  49.1043283  41.9327199
  71.6903022  49.8922475  40.8423613  72.0736628  49.7546678  41.5119914
  78.2934572  34.1783626  39.2421788  78.6462182  33.7513348  39.9167586
  77.4349374  34.0934469  39.3722864  78.2184017  34.1028366  39.3616798
  66.9918257  36.8091145  37.3004634  66.2730247  37.2255278  37.5677498
  67.3630620  37.3745384  36.7496272  66.9410189  36.9540427  37.2587441
  76.2917838  37.4418994  43.1906630  76.2715766  37.2602289  44.0441409
  76.3397039  38.3131013  43.1666214  76.2952479  37.5435532  43.3129925
  74.2364168  44.0306186  49.1155107  74.1960023  43.3855863  48.5300262
  75.0487486  43.9742803  49.4280519  74.3507322  43.9265153  49.0752056
  70.8271636  50.0824912  39.0180257  70.4132034  49.4199042  38.6284099
  71.5119010  50.2302771  38.4975952  70.8670007  50.0065570  38.8836755
  74.1936930  49.2414997  39.7703874  73.7953213  49.3517268  39.0024694
  73.5788149  49.4497064  40.3530434  74.0435819  49.2888565  39.7435173
  72.7664832  35.8489145  32.6378014  72.1729671  36.1706142  32.0862581
  72.8040109  35.0030241  32.4299120  72.6839221  35.7713473  32.5260785
  75.6422648  35.8068650  36.0679764  75.4136341  35.8301351  35.2258122
  75.9020725  34.9826117  36.1874775  75.6468836  35.6884730  35.9604962
  69.9241877  37.6603123  45.6704864  69.4120780  37.0524306  46.0289896
  69.7521373  38.3759715  46.1378840  69.8231514  37.6766422  45.7921088
  64.7707592  36.1040698  48.3207226  64.6010182  36.7642073  47.7755433
  64.3273541  36.3147259  49.0419715  64.6806925  36.2326680  48.3468855
  68.6967411  34.3445196  37.3633960  69.1724777  34.7062276  36.7284141
  68.1956010  35.0001663  37.6434102  68.6932770  34.4939385  37.3110701
  73.8010947  35.5827367  48.1107120  74.3582377  35.3541177  47.4785585
  73.4772012  36.3433033  47.8342332  73.8357357  35.6611204  47.9763617
  71.5194064  38.6695021  49.0759127  72.2705391  38.9846697  49.3898681
  71.7116641  38.4674192  48.2493049  71.6585479  38.6862402  49.0002523
  70.7394064  36.4886396  30.7307344  71.1193029  36.5066025  29.9458458
  69.9986660  36.9340385  30.6098191  70.6862902  36.5568170  30.5970912
  78.3679355  34.7968587  36.3182922  78.3673581  34.6417243  37.1767199
  78.1635535  35.6431574  36.2624308  78.3379132  34.8989208  36.4370862
  76.0920207  39.4766089  39.9719129  76.5873872  38.7589084  39.9323149
  75.2819982  39.1736886  39.8573616  76.0464100  39.3263735  39.9492855
  71.5378818  43.3263902  32.1216134  70.7290141  43.0030575  32.0749443
  72.0453727  42.6197124  32.0544382  71.4928485  43.1745218  32.1046428
  78.1572025  42.2269776  42.6596258  78.5827097  41.7044198  42.1066683
  77.7928945  42.8250614  42.1384881  78.1658628  42.2380003  42.5005268
  67.7926105  50.5233994  41.4193603  68.1072664  51.3370382  41.4271385
  68.2019519  50.1384212  42.0875763  67.8994203  50.5862696  41.5197695
  74.7450625  45.9404040  38.9897415  75.2161803  46.6544303  39.1587401
  75.0810803  45.3402791  39.5257285  74.8645740  45.9575505  39.0929791
  76.8327609  47.5505354  51.1689487  76.9424575  46.7613914  51.5246235
  77.1618506  47.4611290  50.3663826  76.8980015  47.4211207  51.1031878
  71.6620120  30.7131511  45.9455510  71.7948025  29.9162504  46.2736486
  72.0465273  31.2397914  46.5253786  71.7376449  30.6731428  46.0799013
  75.3824571  45.7321975  45.7525108  74.8345517  45.1079858  45.4845173
  75.8437600  45.9216247  45.0369187  75.3691781  45.6681025  45.6075539
  74.7352475  27.6361837  42.5436603  73.9298439  27.5259567  42.8604442
  74.6059210  27.7374293  41.6866469  74.5972608  27.6345507  42.4644644
  78.1918436  33.8007329  43.1376300  77.6081424  34.3016536  42.7253868
  78.5122730  33.2936885  42.5040624  78.1531611  33.7999164  42.9834808
  70.7313235  32.7147924  33.4134975  71.5528929  32.8846237  33.1716670
  70.2682886  32.8695185  32.6901273  70.7844397  32.7629657  33.2706619
  69.3208567  30.7090686  44.1933404  69.8652980  30.3681813  44.7837746
  69.3745502  31.5676148  44.3354689  69.4097686  30.7845945  44.3015277
  74.9482898  46.7373047  42.2834449  75.7681271  46.5936013  42.5450744
  74.6676975  47.3619246  42.8250887  75.0279641  46.8083399  42.4022389
  73.7787173  59.0514947  37.6582594  73.5437357  58.2182599  37.5514863
  73.9172814  59.3319612  36.8443795  73.7642835  58.9698450  37.5224949
  76.0777260  51.2200677  40.5566901  75.4582292  50.6293324  40.3876916
  75.9761124  51.8112112  39.9231225  75.9714936  51.2204760  40.4371891
  75.8046393  54.7652959  42.8010470  75.6805090  55.3515404  43.4360289
  76.4564678  54.2713155  43.1022745  75.8820043  54.7791763  42.9396400
  77.9085038  48.7975223  31.1521700  77.7260612  49.0147104  30.3262693
  78.7710651  48.9114236  31.2080314  78.0089628  48.8465121  31.0376187
  77.5199470  60.6363145  38.5944688  78.3588370  60.8686078  38.6418449
  77.5511239  59.7667457  38.5251723  77.6481188  60.5420092  38.5909332
  78.1452173  61.0564021  42.8957993  78.6850398  60.9135152  43.5661366
  77.4622120  61.4560771  43.2642020  78.1244327  61.0943691  43.0492415
  73.5489318  57.2764311  43.0492415  73.2827734  56.4603428  43.2083405
  73.5627882  57.3217467  42.1787930  73.5114041  57.1621216  42.9445897
  77.4547065  52.0749396  29.6644173  76.7405242  51.7887575  30.0766605
  77.9391034  52.4146022  30.3050560  77.4206429  52.0831045  29.8199808
  73.9582732  58.0623091  40.3304159  73.7758305  58.0369977  39.4776451
  74.6932401  58.5322029  40.3693068  74.0396796  58.1284453  40.2102078
  77.0228484  54.7808094  46.8386268  77.7468456  54.7661124  47.3251162
  77.1244620  55.4903449  46.3408236  77.1446693  54.8832797  46.8365055
  73.9253642  54.9416591  40.4803226  74.5027145  54.8053042  41.1195471
  73.2267704  54.4852376  40.7348810  73.9074664  54.8538858  40.6125515
  69.4012476  53.7928484  37.1951044  69.4872727  53.4160353  37.9764574
  70.0288273  53.4188930  36.7171003  69.5069027  53.6813966  37.2396522
  74.9888434  62.5620217  41.2482405  75.0292579  62.8335068  40.4202184
  75.5482958  63.0862125  41.6640193  75.0771780  62.6795972  41.1874293
  76.4403020  61.1462166  36.0736331  75.6141138  61.3923903  35.9470610
  76.5015012  61.0674247  36.9398389  76.3277187  61.1707115  36.1825275
  76.5846396  50.6889367  34.4748647  76.2971192  50.3190637  33.7380595
  77.2716865  51.1584222  34.2132352  76.6435294  50.7036336  34.3263723
  77.0707685  56.9600387  45.0270192  77.5828782  57.2384640  44.3778952
  76.7844027  57.6989681  45.3933005  77.1042548  57.1102741  44.9860070
  74.1574591  51.4670579  35.3233928  74.2590727  52.2696740  35.6514904
  74.9530478  51.2657915  35.0257009  74.2902497  51.5556478  35.3269284
  74.9738323  51.5817757  43.0655050  74.8323815  50.7301698  43.1899558
  75.2578886  51.6246418  42.2417256  74.9946169  51.4617507  42.9622674
  75.7428628  49.4948105  46.3832500  75.2070818  48.8828463  46.6993268
  75.8046393  50.0696241  47.0366167  75.6724261  49.4895033  46.5267927
  77.8617384  56.9028839  36.1952555  78.0182003  56.8375642  37.0508547
  78.2017977  57.6777392  35.9831235  77.9350619  57.0078037  36.2907149
  74.4351646  54.0863789  36.5113322  74.8150610  54.5048334  35.8473589
  73.8607010  54.6677245  36.8182165  74.4062970  54.2341648  36.4590063
  78.0782447  55.6524194  41.1428817  77.2370454  55.5528068  41.3507710
  78.2872455  56.4219674  41.4943137  77.9847140  55.7516238  41.2256131
  75.5558014  53.2743731  38.9713567  75.1614712  53.3486743  38.1963677
  74.9998131  53.6601677  39.5221929  75.4160826  53.3425506  38.9381227
  77.9691255  58.0467957  42.5620449  77.3779188  58.6877455  42.5323465
  78.7312279  58.4705574  42.5351749  77.9939516  58.2043795  42.5535597
  78.3651878  49.2069954  43.2288467  78.8253359  49.2808884  43.9663591
  78.4107985  50.0051208  42.8788288  78.4402433  49.3364101  43.2861224
  75.1539656  52.8359145  45.6040183  76.0165269  52.7354854  45.5177513
  74.8231439  52.2553854  45.0425755  75.2324852  52.7350772  45.5085589
  78.5141442  51.6601594  42.2650601  77.8894512  51.6719986  41.6576554
  78.1787036  52.1361769  42.9141842  78.3726933  51.7320111  42.2707170
  78.6983190  50.0026712  28.3223286  78.3495995  50.6546438  28.7854836
  78.2179636  49.9883825  27.5947158  78.5753434  50.0969766  28.2834378
  75.2267117  59.7202054  43.7054366  74.6967042  59.0294493  43.7549341
  75.4992210  59.7112239  42.8767074  75.1891839  59.6169186  43.5901782
  77.7832187  53.2694742  44.4825470  77.9425674  52.5138066  44.8877192
  77.6025081  53.8185681  45.1366208  77.7797546  53.2388555  44.6388176
  70.5062959  56.3929818  41.0622714  70.4006408  56.3476663  40.1974798
  69.7563179  56.7383599  41.3436999  70.3798562  56.4370726  40.9760044
  75.6060309  55.6920195  34.4331454  76.1152539  56.2884702  34.8142759
  76.0794582  55.4246168  33.7507873  75.7503685  55.7406010  34.3885977
  77.9650841  52.3276453  37.3004634  77.2462830  52.7440586  37.5677498
  78.3363203  52.8930692  36.7496272  77.9142773  52.4725735  37.2587441
  75.7440175  51.6226006  48.3207226  75.5742765  52.2827381  47.7755433
  75.3006125  51.8332567  49.0419715  75.6539509  51.7511988  48.3468855
  72.6442240  54.5272871  43.5795716  72.0968959  53.8573517  43.6976584
  73.4334618  54.1602719  43.6439183  72.6794423  54.3737858  43.6064416
  71.4029209  53.7393679  40.7341739  71.2250970  53.2870288  41.4596654
  71.1148231  54.5419841  40.9180216  71.3342162  53.7916237  40.8685242
  73.1401679  56.2721403  37.8463498  72.2747198  56.2607093  37.7346269
  73.2400495  56.0851626  38.6934637  73.0275846  56.2427464  37.9552442
  76.1071709  59.9892410  41.0672212  76.7116566  59.9488244  40.4386033
  75.8999021  60.8363562  41.0976268  76.1660606  60.1080413  40.9788328
  71.3422991  58.9727028  40.9371135  71.2447269  58.1623299  41.2461192
  72.1251861  58.9518821  40.5517403  71.4439128  58.8494118  40.9257998
  56.7523029   8.9183783  22.7007534  56.0005929   8.5399322  22.4723579
  57.2009041   8.9502217  21.9526345  56.7072696   8.8669390  22.5565037
  62.2047989   9.3409153  18.1293081  61.8699358  10.0186074  17.6937304
  62.7174860   8.9514464  17.5409953  62.2313570   9.3833731  17.9779873
  61.7452280  11.2923421  24.0704193  62.1291660  11.8610320  23.5308968
  61.6811422  10.5672932  23.5910009  61.7925708  11.2698885  23.9198056
  58.3307785   8.9302175  24.9670307  58.4318148   8.1202529  25.2767435
  57.7349531   8.8359122  24.3369985  58.2580324   8.7967203  24.9196545
  58.1708525  13.8479765  26.3685163  58.8145980  14.2892929  26.7581321
  58.4964781  13.0433191  26.2815422  58.3140354  13.7944959  26.4130640
  51.5272830   4.9522462  24.5922641  51.2923014   4.1190114  24.4854909
  51.6658470   5.2327128  23.7783841  51.5128492   4.8705965  24.4564996
  58.8729105   6.8591739  21.7405025  59.1944946   7.3996947  21.1366333
  59.5201201   6.2888511  21.8727314  59.0155160   6.8550915  21.6712060
  61.1176483   6.6877097  28.6644921  61.3999725   5.8928503  28.4431677
  61.8462643   7.1657685  28.6849982  61.2666046   6.6411694  28.6347936
  53.0890154   9.8308133  25.8678847  52.6057733  10.5558622  25.8438430
  53.9013473  10.1284263  25.9789004  53.1380902   9.9810486  25.8806126
  59.1604308   8.6240313  28.4728661  58.6431250   8.2647728  27.8689969
  59.8578700   8.1002488  28.4834727  59.1869890   8.4938001  28.3858920
  62.8167900   9.0735128  34.4344834  62.9051246   8.8861268  35.2823045
  63.2457613   8.4272557  34.0349681  62.8930003   8.9498135  34.5016586
  60.3838360   8.3566287  33.4162496  59.8209195   7.9438897  33.9402158
  61.1459384   8.2819193  33.8355640  60.4132809   8.2843688  33.5555497
  55.9434352  10.3464309  26.0199127  56.6454931   9.8316298  26.0771883
  55.8631835  10.6738460  26.8246002  56.0358112  10.3178535  26.1471919
  55.2685127   6.5370661  25.5284735  56.1074026   6.7693593  25.5758496
  55.2996896   5.6674972  25.4591770  55.3966845   6.4427607  25.5249379
  55.8937830   6.9571536  29.8298040  56.4336055   6.8142667  30.5001412
  55.2107776   7.3568287  30.1982066  55.8729984   6.9951207  29.9832462
  62.9287960   8.5044147  37.0988618  63.7128376   8.6174994  37.4644360
  62.7284554   7.6785284  37.2947304  63.0153985   8.3990866  37.1823004
  51.2974975   3.1771827  29.9832462  51.0313390   2.3610943  30.1423452
  51.3113539   3.2224982  29.1127977  51.2599697   3.0628731  29.8785944
  51.7068389   3.9630606  27.2644206  51.5243962   3.9377492  26.4116498
  52.4418058   4.4329544  27.3033115  51.7882453   4.0291968  27.1442124
  58.0461449   6.2239396  24.2988148  58.6835396   5.9851144  24.8439941
  58.4716520   6.4276555  23.5641309  58.2037615   6.2190406  24.2705305
  52.7374091   8.4627733  28.1822452  52.7778236   8.7342584  27.3542231
  53.2968615   8.9869641  28.5980240  52.8257437   8.5803488  28.1214340
  60.4282921   6.7011819  25.9781934  60.5021929   6.5386991  26.8323784
  61.2452427   6.8902008  25.7342416  60.5599279   6.7048561  26.0679960
  54.1888677   7.0469682  23.0076378  53.3626795   7.2931419  22.8810656
  54.2500668   6.9681762  23.8738436  54.0762844   7.0714631  23.1165322
  58.9687506   9.6646562  20.7095408  59.2585805   9.2735543  19.9854634
  59.6990987   9.8463267  21.1500683  59.1194390   9.6340376  20.6678215
  56.9093422  11.6413944  23.7755557  56.6893717  11.3511299  24.5682224
  56.6887944  10.9828899  23.2473470  56.8441016  11.5013653  23.8144466
  59.0761378  13.0143334  22.5586250  59.7285436  12.4819777  22.7877276
  58.3786986  12.6611987  22.9454124  59.0692096  12.8832857  22.6498417
  56.0242642   5.3682512  21.9653624  56.7788610   5.7495551  22.1789087
  55.4313255   5.8193655  22.4200321  56.0479356   5.4911339  22.0636502
  57.3440869   6.5391073  27.3393739  56.8221623   6.6791365  28.0245604
  57.7314889   5.7801737  27.5295857  57.3244570   6.4476597  27.4694816
  63.5407874   8.2786532  21.3254308  63.2994550   7.5454393  20.9181373
  63.7209207   8.8273389  20.6720641  63.5315498   8.2508924  21.1684531
  57.9087354  10.2451853  30.4223595  58.0576918   9.6854769  29.7696999
  58.6887357  10.3243855  30.8056114  58.0461448  10.1737419  30.3820544
  60.4340655  10.4166496  31.7008086  60.3584326   9.7475307  32.2558874
  60.3630514  11.1184284  32.2148752  60.4121262  10.4211403  31.8584934
  61.0910902   8.9367495  22.5331692  61.8560793   8.6677139  22.2114356
  60.9888992   8.4517505  23.2501755  61.1892397   8.8257060  22.5911519
  59.8232289  13.8234816  30.1586087  60.3128220  13.1245605  29.9761751
  59.2516522  13.5258686  30.7462144  59.8116819  13.6761039  30.2187127
  60.3168635   7.5711589  19.2825993  60.3861456   6.7126128  19.4218993
  61.0957090   7.7883470  18.9545018  60.4421485   7.4764453  19.2543150
  64.7076123   9.9949291  23.4962486  64.3155915   9.6916006  22.7785353
  64.8629195  10.8318381  23.3067440  64.6729713  10.0733127  23.3618983
  66.0874793   8.1422984  31.0241075  66.8767172   7.7912048  31.1443156
  66.2618391   8.9559372  30.7617708  66.2295075   8.2108841  31.0028943
  57.7003120   6.6962829  32.0338559  57.5923475   6.7064892  32.9000617
  57.9098901   7.5217610  31.8443512  57.7153231   6.8203904  32.1342650
  55.7176912   3.9475472  29.4960496  55.1264845   4.5884970  29.4663511
  56.4797935   4.3713089  29.4691796  55.7425172   4.1051310  29.4875643
  65.4766428   9.3984783  26.9292521  65.2786117   9.8875598  26.2348732
  64.8554139   9.6026025  27.5076654  65.3553992   9.5001322  26.9115744
  52.9752774   5.6209569  30.6394413  52.4452698   4.9302008  30.6889387
  53.2477867   5.6119755  29.8107121  52.9377496   5.5176701  30.5241829
  48.2548616   2.2937333  27.9962761  48.1492065   2.2484178  27.1314845
  47.5048836   2.6391114  28.2777046  48.1284219   2.3378242  27.9100091
  61.6568934   6.3492719  31.5926213  61.1494025   6.9028566  32.0366843
  61.3595580   6.4101009  30.7744987  61.5373819   6.4399030  31.5374669
  64.2676714  10.2655977  19.5230156  63.5506024  10.0916839  19.0577394
  64.9183452  10.0308549  18.9905642  64.2578565  10.2051769  19.3759374
  60.9011419  11.2817277  28.4983220  60.6777073  10.5236106  28.8667246
  60.4121262  11.3115298  27.7763659  60.7954868  11.1739502  28.4459961
  59.5489876  11.5017735  25.9520304  59.1350275  10.8391865  25.5624146
  60.2337250  11.6495594  25.4315998  59.5888248  11.4258393  25.8176801
  62.9155170  10.6607821  26.7043921  62.5171453  10.7710091  25.9364741
  62.3006390  10.8689887  27.2870481  62.7654059  10.7081389  26.6775220
  56.5144346  11.9426817  28.3533650  56.8290905  12.7563205  28.3611432
  56.9237759  11.5577036  29.0215809  56.6212444  12.0055519  28.4537742
  63.4668865   7.3596864  25.9237462  63.9380043   8.0737126  26.0927447
  63.8029044   6.7595614  26.4597332  63.5863980   7.3768328  26.0269838
  65.5545850   8.9698177  38.1029534  65.6642815   8.1806738  38.4586281
  65.8836746   8.8804113  37.3003872  65.6198256   8.8404030  38.0371925
  53.8557366   5.8899925  28.0012259  54.4602223   5.8495760  27.3726079
  53.6484678   6.7371077  28.0316314  53.9146263   6.0087928  27.9128375
  63.6701138   8.1565871  29.2174496  64.4899512   8.0128837  29.4790791
  63.3895216   8.7812069  29.7590934  63.7497881   8.2276223  29.3362435
  49.0908648   4.8734543  27.8711182  48.9932926   4.0630814  28.1801238
  49.8737518   4.8526336  27.4857450  49.1924785   4.7501633  27.8598045
  73.3414473  14.9006373  26.9370303  72.4852369  15.0614872  26.9879420
  73.3882127  14.0298437  26.9575364  73.2213585  14.7957175  26.9476369
  67.7255613  24.4369091  22.7007534  66.9738512  24.0584629  22.4723579
  68.1741624  24.4687525  21.9526345  67.6805280  24.3854698  22.5565037
  76.6508190  21.1692899  36.5430759  77.3574957  20.6744930  36.6717693
  76.8396125  21.6101980  35.8133417  76.7836095  21.1611249  36.4539804
  73.1780573  24.8594461  18.1293081  72.8431941  25.5371382  17.6937304
  73.6907443  24.4699772  17.5409953  73.2046154  24.9019039  17.9779873
  72.7184864  26.8108729  24.0704193  73.1024243  27.3795628  23.5308968
  72.6544005  26.0858240  23.5910009  72.7658291  26.7884193  23.9198056
  76.1866294  16.9598417  29.5801954  76.7322254  17.6383504  29.6395924
  76.1283170  16.8185878  28.7203536  76.2582208  17.0390419  29.4614015
  69.3040369  24.4487483  24.9670307  69.4050732  23.6387837  25.2767435
  68.7082114  24.3544430  24.3369985  69.2312908  24.3152511  24.9196545
  77.9631363  18.3883024  20.4535682  77.8470889  19.1390710  20.8827820
  78.7587249  18.1306978  20.7031769  78.0635952  18.4617871  20.5539774
  69.1441109  29.3665072  26.3685163  69.7878564  29.8078237  26.7581321
  69.4697364  28.5618499  26.2815422  69.2872937  29.3130267  26.4130640
  62.5005413  20.4707770  24.5922641  62.2655598  19.6375422  24.4854909
  62.6391054  20.7512436  23.7783841  62.4861076  20.3891273  24.4564996
  64.7995501  12.6393500  27.4906948  64.1800532  12.0486148  27.3216963
  64.6979364  13.2304936  26.8571271  64.6933176  12.6397583  27.3711938
  69.8461688  22.3777047  21.7405025  70.1677529  22.9182255  21.1366333
  70.4933785  21.8073819  21.8727314  69.9887743  22.3736222  21.6712060
  71.8963396  14.3793042  21.8239411  72.5943561  14.5581170  22.3160875
  72.2115729  13.8563382  21.2009801  72.0458734  14.3286814  21.8041421
  64.5264634  16.1845782  29.7350517  64.4023331  16.7708228  30.3700336
  65.1782918  15.6905978  30.0362792  64.6038283  16.1984587  29.8736447
  72.0851332  20.7663487  21.8119203  72.5244967  20.1580588  22.2573976
  71.9355995  20.3870861  21.0404668  72.1272797  20.6201958  21.7638370
  69.5522975  19.3607499  29.0138028  70.1971977  18.8679942  28.6948977
  69.7924752  19.5032286  29.8404107  69.6833560  19.3084941  29.0887562
  72.0909066  22.2062405  28.6644921  72.3732309  21.4113811  28.4431677
  72.8195227  22.6842992  28.6849982  72.2398630  22.1597002  28.6347936
  70.0690260   9.7485439  25.9060686  69.7393590  10.1996583  25.2364385
  69.3935262   9.6701602  26.4533692  69.9200696   9.8036574  25.8883909
  75.6860668  19.1190669  18.7649972  75.6011963  19.9751635  18.9099541
  76.1745052  18.8434993  19.4332131  75.7449566  19.2047990  18.8852054
  76.6179102  15.7375463  20.2647707  76.0890573  15.9535096  20.9245013
  77.1404121  16.4311601  20.1848677  76.6167555  15.8718600  20.3503306
  68.5078709  19.6338680  19.0655175  67.9235925  20.1388711  19.4721039
  68.1048805  19.4081066  18.3251767  68.3618013  19.6746928  19.0160200
  64.0622738  25.3493441  25.8678847  63.5790316  26.0743930  25.8438430
  64.8746056  25.6469571  25.9789004  64.1113486  25.4995794  25.8806126
  70.1336892  24.1425621  28.4728661  69.6163834  23.7833036  27.8689969
  70.8311283  23.6187796  28.4834727  70.1602473  24.0123309  28.3858920
  73.7900484  24.5920435  34.4344834  73.8783830  24.4046576  35.2823045
  74.2190197  23.9457865  34.0349681  73.8662586  24.4683443  34.5016586
  71.3570944  23.8751595  33.4162496  70.7941779  23.4624205  33.9402158
  72.1191967  23.8004501  33.8355640  71.3865392  23.8028996  33.5555497
  66.9166935  25.8649617  26.0199127  67.6187515  25.3501606  26.0771883
  66.8364418  26.1923768  26.8246002  67.0090696  25.8363843  26.1471919
  67.9645842  16.1025203  35.1479542  68.1366345  15.9931098  35.9964823
  68.5015199  16.7479609  34.9110734  68.0690846  16.1817205  35.2384638
  66.6303279  10.2168046  18.0861747  66.4478852  10.4339927  17.2602739
  67.4928892  10.3307059  18.1420361  66.7307868  10.2657944  17.9716234
  66.2417711  22.0555969  25.5284735  67.0806610  22.2878901  25.5758496
  66.2729480  21.1860280  25.4591770  66.3699428  21.9612915  25.5249379
  66.8670414  22.4756844  29.8298040  67.4068639  22.3327975  30.5001412
  66.1840360  22.8753595  30.1982066  66.8462568  22.5136515  29.9832462
  76.2911299  18.1547844  25.0243064  77.0468814  18.5879359  25.0631973
  76.3973623  17.5052614  25.5977700  76.4181469  18.1225328  25.1141090
  73.9020543  24.0229454  37.0988618  74.6860960  24.1360302  37.4644360
  73.7017138  23.1970592  37.2947304  73.9886569  23.9176174  37.1823004
  62.2707559  18.6957135  29.9832462  62.0045974  17.8796251  30.1423452
  62.2846123  18.7410290  29.1127977  62.2332281  18.5814039  29.8785944
  66.1765306  13.4942219  16.5984220  65.4623483  13.2080398  17.0106652
  66.6609274  13.8338845  17.2390607  66.1424669  13.5023869  16.7539855
  67.0206165  12.2335513  32.6299469  66.3277962  11.7632493  32.8760201
  67.6366492  12.0073817  33.2041176  67.0090695  12.1302645  32.7508622
  74.0590937  25.9339557  30.7455073  73.2606182  25.6939057  31.0028942
  74.5076948  25.9853949  31.4922121  74.0065548  25.9061948  30.8939998
  73.3512624  21.9972173  16.9746028  73.7663772  21.6657197  16.2830524
  72.5204553  21.7641075  16.8466165  73.2900632  21.9143429  16.8536875
  62.6800972  19.4815914  27.2644206  62.4976546  19.4562800  26.4116498
  63.4150641  19.9514852  27.3033115  62.7615036  19.5477276  27.1442124
  65.7446724  16.2000917  33.7726315  66.4686696  16.1853947  34.2591209
  65.8462861  16.9096272  33.2748283  65.8664933  16.3025620  33.7705101
  73.1191673  19.6800001  38.6375262  72.3264654  19.9943513  38.8227881
  73.2340601  19.8951470  37.7996046  73.0187084  19.7583838  38.5413596
  75.7922992  16.4033993  22.9270277  75.8869847  17.1423287  23.3809903
  75.1681836  15.9751468  23.3604842  75.7132023  16.4495313  23.0578425
  74.0475466  19.5820205  33.5760558  74.6214328  18.9447449  33.7309122
  73.9690270  19.5824288  32.7070216  74.1208701  19.4885317  33.4706969
  62.6471883  16.3609415  27.4143272  63.2245385  16.2245865  28.0535518
  61.9485944  15.9045199  27.6688857  62.6292904  16.2731681  27.5465562
  69.4039185  18.0143470  25.6281756  69.1458429  17.1815205  25.6013055
  69.4587668  18.2401083  24.7874256  69.3738963  17.9241242  25.5001892
  68.3773897  15.5681233  26.1146650  67.8023488  15.7273401  26.7510611
  68.0009573  14.9316642  25.6515101  68.2376709  15.4979046  26.1401209
  72.0447186  14.0404582  30.9739029  71.6561618  13.6158800  30.3191220
  71.3801884  14.2886732  31.4816055  71.8894113  14.0143303  30.9526897
  58.1230716  15.2121308  24.1291091  58.2090968  14.8353176  24.9104621
  58.7506513  14.8381753  23.6511049  58.2287267  15.1006790  24.1736568
  73.1486124  18.2703187  19.1715836  73.9626763  18.5618079  19.0598607
  73.0845265  17.6163049  18.5974129  73.2588863  18.2168381  19.0704673
  69.0194032  21.7424704  24.2988148  69.6567979  21.5036452  24.8439941
  69.4449104  21.9461863  23.5641309  69.1770198  21.7375714  24.2705305
  63.7106675  23.9813041  28.1822452  63.7510820  24.2527892  27.3542231
  64.2701199  24.5054949  28.5980240  63.7990021  24.0988796  28.1214340
  69.6596847  16.9626994  18.6363037  70.0442000  16.7434701  19.3879582
  69.4108468  17.7889939  18.7664114  69.6798920  17.0525140  18.7664114
  69.8265388  10.2433409  38.3525622  69.5118829  11.0132972  38.0895184
  69.5055320   9.6803665  37.7677848  69.7324307  10.2743678  38.2266971
  71.4015504  22.2197127  25.9781934  71.4754512  22.0572299  26.8323784
  72.2185010  22.4087316  25.7342416  71.5331863  22.2233869  26.0679960
  67.3797285   8.6323931  23.9671818  66.5119710   8.7046530  24.0329427
  67.6672489   9.4346009  24.1559793  67.2937033   8.7618078  24.0046584
  69.9420090  25.1831870  20.7095408  70.2318388  24.7920851  19.9854634
  70.6723571  25.3648575  21.1500683  70.0926974  25.1525684  20.6678215
  70.5314835  19.9849616  31.7948538  70.0326529  20.6965383  31.8733427
  71.3415059  20.3050282  31.7566700  70.5770942  20.1376464  31.8005107
  67.8826005  27.1599252  23.7755557  67.6626301  26.8696607  24.5682224
  67.6620527  26.5014207  23.2473470  67.8173600  27.0198961  23.8144466
  66.7942953  19.2472569  26.0411259  66.5056201  18.6210040  26.5756986
  67.6626301  19.1892856  26.1075939  66.8803205  19.1460113  26.1302214
  77.5820850  14.3907352  26.3593241  77.2385616  13.6697687  26.7100491
  77.6813893  14.1821203  25.5171599  77.5462893  14.2531555  26.2864921
  70.0493961  28.5328642  22.5586250  70.7018019  28.0005084  22.7877276
  69.3519570  28.1797294  22.9454124  70.0424679  28.4018165  22.6498417
  66.9975226  20.8867820  21.9653624  67.7521194  21.2680859  22.1789087
  66.4045839  21.3378963  22.4200321  67.0211940  21.0096647  22.0636502
  78.0433880  20.8533056  21.9017229  78.6091912  21.5126266  21.8175772
  77.3961783  21.1982754  22.3733631  78.0312636  21.0014997  21.9589985
  69.4581893  12.8430660  37.0910836  68.6481669  13.1488440  36.9800679
  69.9356580  13.5636242  37.2063420  69.4085372  12.9945261  37.0917907
  68.3173453  22.0576381  27.3393739  67.7954206  22.1976673  28.0245604
  68.7047473  21.2987045  27.5295857  68.2977154  21.9661905  27.4694816
  65.3064637  12.1082190  21.4088694  65.0189432  11.7383460  20.6720641
  65.9935105  12.5777045  21.1472399  65.3653534  12.1229159  21.2603770
  74.5140458  23.7971840  21.3254308  74.2727134  23.0639701  20.9181373
  74.6941791  24.3458697  20.6720641  74.5048082  23.7694231  21.1684531
  69.7439778  19.0880400  22.7375230  69.5482561  19.6955135  22.1435533
  69.9674124  18.3948344  22.2566904  69.7474419  19.0757926  22.5791311
  68.1418308  15.9735138  22.8556099  68.8640960  16.1376296  22.3959905
  67.6626301  16.6944803  22.7495439  68.1782039  16.1033368  22.7721713
  76.1011816  12.3098937  28.2352784  75.2622916  12.3360216  27.9991047
  76.1716183  12.9569672  28.8158130  75.9880209  12.4095063  28.2861901
  65.7925925  18.3793210  31.9610239  66.3047022  18.6577464  31.3118998
  65.5062268  19.1182505  32.3273052  65.8260788  18.5295564  31.9200117
  62.8792831  12.8863402  22.2573975  62.9808968  13.6889564  22.5854951
  63.6748718  12.6850738  21.9597056  63.0120737  12.9749301  22.2609331
  69.3109650  10.4719599  32.0211280  69.1192847  10.4874733  32.8710704
  70.1608246  10.6683273  31.9977935  69.4085372  10.5033950  32.1434575
  63.6956563  13.0010581  29.9995097  63.5542055  12.1494521  30.1239605
  63.9797127  13.0439241  29.1757303  63.7164409  12.8810331  29.8962721
  73.8495156  14.8377671  24.1439585  73.6029870  14.7573422  24.9776374
  74.1780279  14.0531139  23.9502113  73.8616399  14.7103936  24.2387108
  77.7443205  21.5461030  27.9326366  77.6057564  22.2442076  28.4375109
  76.9643202  21.3909687  27.5762548  77.6086431  21.6261197  27.9552640
  76.0821290  17.8457405  34.1848748  76.0769328  16.9737222  34.1891174
  76.7882284  18.0445575  33.7118204  76.1866294  17.7461280  34.1155783
  69.8092183  17.5734389  33.5562568  69.9535559  18.1535597  32.9205678
  70.1567832  17.9510686  34.2612423  69.8819644  17.7155093  33.5661563
  71.9812100  16.7724558  31.3387700  71.2335414  16.9655572  30.9335978
  72.1353626  15.9469777  31.1011821  71.8934528  16.6789669  31.2433106
  68.8819938  25.7637161  30.4223595  69.0309502  25.2040077  29.7696999
  69.6619940  25.8429163  30.8056114  69.0194032  25.6922727  30.3820544
  71.4073239  25.9351804  31.7008086  71.3316910  25.2660615  32.2558874
  71.3363098  26.6369592  32.2148752  71.3853846  25.9396711  31.8584934
  72.2213877  10.6675108  32.2283103  72.6786492  11.3999083  32.3555896
  72.2970206  10.2441574  32.9870359  72.3004847  10.7132346  32.3584180
  64.4646869  10.9140928  33.3172547  63.9289058  10.3021286  33.6333314
  64.5264633  11.4889064  33.9706214  64.3942501  10.9087856  33.4607974
  72.0643486  24.4552803  22.5331692  72.8293377  24.1862447  22.2114356
  71.9621576  23.9702813  23.2501755  72.1624981  24.3442368  22.5911519
  75.4839942  20.2919642  26.7984373  74.8084943  20.0604875  27.2997760
  75.4932318  19.6840825  26.1726478  75.3858446  20.1678568  26.7800526
  72.6134086  15.1337471  33.5548426  72.5493227  15.9947428  33.4268563
  72.7531273  14.8169465  32.7543978  72.6249556  15.2137638  33.4176639
  77.4856676  23.1484775  19.0294551  77.5676514  23.9551761  18.7056002
  77.9706418  23.1680734  19.7535325  77.5693834  23.2705437  19.0881450
  71.2953180  17.8269611  27.6964629  70.8715429  18.0274110  26.9603648
  71.1198035  16.9798459  27.8088929  71.2064060  17.7318392  27.6038319
  70.7964873  29.3420124  30.1586087  71.2860803  28.6430913  29.9761751
  70.2249105  29.0443994  30.7462144  70.7849403  29.1946347  30.2187127
  66.5835624  18.3221662  23.1292602  66.7400244  18.2568465  23.9848594
  66.9236218  19.0970215  22.9171281  66.6568859  18.4270860  23.2247196
  73.1214769  17.6979546  21.9985965  73.6630315  17.1949927  22.4624586
  73.4361328  17.6444740  21.1875450  73.2479166  17.6158967  21.9469777
  76.9931876  21.9082193  39.1112877  77.8066742  21.6367342  39.2718010
  76.8326843  21.6089733  38.3073073  77.0901825  21.8237119  39.0158283
  71.2901219  23.0896897  19.2825993  71.3594039  22.2311436  19.4218993
  72.0689674  23.3068778  18.9545018  71.4154069  22.9949761  19.2543150
  74.2704038  12.5915850  32.0508265  74.4846008  11.9526765  31.4971619
  73.6537938  13.0361674  31.6216127  74.2109368  12.5625994  31.9058697
  75.6808706  25.5134599  23.4962486  75.2888498  25.2101314  22.7785353
  75.8361779  26.3503689  23.3067440  75.6462296  25.5918435  23.3618983
  63.1569886  15.5056613  23.4453369  63.5368851  15.9241158  22.7813636
  62.5825251  16.0870068  23.7522212  63.1281211  15.6534472  23.3930110
  76.4343126  14.2004915  32.9891573  75.6219808  13.8930806  33.0704745
  76.8933061  13.7203916  33.5534285  76.3823511  14.0841408  33.0846167
  75.8448381  22.0784587  23.4368517  75.4863036  22.2499230  24.2132549
  75.3587092  22.5397793  22.8796515  75.7207078  22.1723559  23.4693786
  73.5296634  15.6064987  37.7720275  73.9996265  16.2307103  38.1588149
  73.5758514  14.9381962  38.3313490  73.6064510  15.5999667  37.9120346
  77.0053120  22.9688483  34.3835718  77.6432841  22.4748679  34.0498174
  76.3627212  22.8965884  33.7987945  77.0047347  22.8847492  34.2478073
  78.7310121  14.8177629  28.9501633  78.3037729  14.7303978  28.1949733
  78.0936174  14.9255405  29.5356477  78.5739728  14.8210289  28.9247075
  77.0607377  23.6608292  31.0241075  77.8499755  23.3097356  31.1443156
  77.2350975  24.4744680  30.7617708  77.2027659  23.7294149  31.0028943
  66.8000688  17.0717017  28.0768863  65.9588694  16.9720892  28.2847757
  67.0090695  17.8412498  28.4283184  66.7065380  17.1709061  28.1596178
  64.2776254  14.6936554  25.9053614  63.8832952  14.7679566  25.1303724
  63.7216371  15.0794501  26.4561976  64.1379067  14.7618329  25.8721274
  70.6117352  14.9998417  27.3266461  70.3080490  14.4454405  27.9276869
  69.9096773  15.1790627  26.8394495  70.4633562  14.9443199  27.3436167
  69.6683449  12.3098936  21.8911163  69.9443184  11.5917849  21.4788730
  70.2682119  12.9083856  21.6832269  69.7976714  12.2919307  21.7991924
  68.6735703  22.2148137  32.0338559  68.5656058  22.2250199  32.9000617
  68.8831485  23.0402918  31.8443512  68.6885814  22.3389212  32.1342650
  66.6909495  19.4660780  29.4960496  66.0997429  20.1070278  29.4663511
  67.4530519  19.8898397  29.4691796  66.7157756  19.6236618  29.4875643
  67.0870118  10.6262777  30.1628514  67.5471600  10.7001707  30.9003638
  67.1326225  11.4244032  29.8128335  67.1620673  10.7556925  30.2201270
  68.7353468  11.2929472  34.7300541  68.3439033  10.6462819  35.1656319
  68.9039331  11.8840908  35.3494796  68.7024378  11.2843740  34.8863247
  76.4499012  24.9170091  26.9292521  76.2518700  25.4060906  26.2348732
  75.8286723  25.1211333  27.5076654  76.3286576  25.0186630  26.9115744
  70.5106990  16.6854988  21.2702765  71.2549035  17.0729264  21.5085715
  70.6567686  15.8412414  21.4343253  70.6417575  16.6185461  21.3296735
  73.4984866  12.2580461  27.1696684  73.0244820  11.7322223  27.6801995
  73.8703002  11.7109934  26.6011546  73.4834755  12.0996458  27.1611832
  63.8757896  14.2551968  32.5380230  64.7383509  14.1547677  32.4517560
  63.5449679  13.6746677  31.9765802  63.9543092  14.1543595  32.4425636
  67.2359682  13.0794417  29.1990648  66.6112752  13.0912809  28.5916601
  66.9005277  13.5554592  29.8481888  67.0945174  13.1512934  29.2047217
  67.4201431  11.4219536  15.2563333  67.0714235  12.0739261  15.7194883
  66.9397876  11.4076649  14.5287204  67.2971675  11.5162589  15.2174425
  63.9485357  21.1394877  30.6394413  63.4185282  20.4487316  30.6889387
  64.2210451  21.1305063  29.8107121  63.9110080  21.0362009  30.5241829
  74.9805448  21.7220580  19.3632095  75.7039647  22.1878693  19.2196668
  74.5406039  21.7894189  18.6129692  75.0221140  21.8004416  19.2316877
  74.1491603  18.5818122  30.6132784  73.5348596  18.0376172  30.9081419
  74.6658888  18.0682358  30.1338600  74.1347265  18.4254531  30.5857013
  66.5050427  14.6887565  31.4165517  66.6643914  13.9330889  31.8217239
  66.3243321  15.2378504  32.0706254  66.5015786  14.6581379  31.5728223
  71.7173610  10.5291146  28.5619617  71.7416097   9.9951259  27.8732397
  71.9685084  10.0208455  29.2245207  71.7583529  10.3752050  28.5584261
  59.2281200  17.8122641  27.9962761  59.1224649  17.7669486  27.1314845
  58.4781420  18.1576422  28.2777046  59.1016803  17.8563550  27.9100091
  67.9974932   9.2561965  27.9425361  68.0373304   9.7571171  28.6560069
  67.1724597   9.3472358  27.6731284  67.8814458   9.3443781  28.0075899
  70.1804545  18.8222705  36.0445656  69.3300176  18.9594419  36.1803301
  70.3432673  18.0886483  36.4893357  70.0788409  18.7336806  36.1301255
  69.4189296  15.7722474  30.2399260  68.5881225  15.9396292  30.0334508
  69.3640813  15.3958425  31.0248145  69.2878710  15.7412206  30.3247788
  67.2273079   9.2631367  35.8755671  67.8525782   8.7193500  36.1485103
  66.7723559   8.7826285  35.3063461  67.2521339   9.1120849  35.8317265
  67.7925339  14.0478066  20.7689378  67.9328300  14.5450530  21.4718019
  68.2907872  13.3464360  20.9103591  67.8866420  14.0180045  20.8940957
  67.8225562  14.9145177  18.0981955  68.4570641  15.5105602  18.0331416
  67.9051173  14.6148635  18.9127825  67.9282113  14.9586085  18.2085041
  69.4004545  10.8459152  18.0727397  69.7220386  10.3662235  17.4186659
  69.6631488  11.6558799  17.8818208  69.4870570  10.8949050  17.9482889
  72.6301517  21.8678027  31.5926213  72.1226608  22.4213874  32.0366843
  72.3328164  21.9286317  30.7744987  72.5106402  21.9584338  31.5374669
  64.3278550  17.1113018  21.3671501  64.8370779  17.7077525  21.7482806
  64.8012822  16.8438991  20.6847920  64.4721925  17.1598833  21.3226023
  75.2409298  25.7841285  19.5230156  74.5238607  25.6102147  19.0577394
  75.8916035  25.5493857  18.9905642  75.2311148  25.7237077  19.3759374
  77.8257269  14.6605873  23.2671461  77.1548459  15.2035575  23.1384527
  78.5197019  15.1300728  23.0253156  77.8286136  14.8104144  23.2126989
  71.8744003  26.8002585  28.4983220  71.6509657  26.0421414  28.8667246
  71.3853846  26.8300606  27.7763659  71.7687452  26.6924810  28.4459961
  66.6869081  13.7469276  24.2344681  65.9681070  14.1633409  24.5017545
  67.0581444  14.3123515  23.6836319  66.6361013  13.8918558  24.1927488
  75.9868662  14.3797125  30.1246677  75.9666589  14.1980420  30.9781456
  76.0347863  15.2509144  30.1006260  75.9903303  14.4813664  30.2469972
  73.9314992  20.9684317  36.0495153  73.8910847  20.3233994  35.4640309
  74.7438310  20.9120935  36.3620565  74.0458146  20.8643284  36.0092103
  70.5222460  27.0203043  25.9520304  70.1082858  26.3577173  25.5624146
  71.2069834  27.1680902  25.4315998  70.5620831  26.9443701  25.8176801
  73.8887754  26.1793128  26.7043921  73.4904037  26.2895399  25.9364741
  73.2738973  26.3875195  27.2870481  73.7386643  26.2266696  26.6775220
  72.4615656  12.7867276  19.5718061  71.8680495  13.1084273  19.0202628
  72.4990933  11.9408372  19.3639167  72.3790045  12.7091605  19.4600832
  75.3373472  12.7446781  23.0019811  75.1087165  12.7679482  22.1598169
  75.5971548  11.9204248  23.1214821  75.3419660  12.6262861  22.8945008
  69.6192701  14.5981254  32.6044911  69.1071604  13.9902437  32.9629942
  69.4472197  15.3137846  33.0718887  69.5182338  14.6144553  32.7261135
  64.4658415  13.0418829  35.2547273  64.2961006  13.7020204  34.7095479
  64.0224365  13.2525390  35.9759762  64.3757749  13.1704811  35.2808902
  68.3918235  11.2823327  24.2974006  68.8675601  11.6440407  23.6624188
  67.8906834  11.9379795  24.5774149  68.3883594  11.4317516  24.2450747
  73.4961771  12.5205498  35.0447167  74.0533201  12.2919308  34.4125632
  73.1722836  13.2811164  34.7682379  73.5308181  12.5989335  34.9103664
  61.3660480  15.9465695  30.5135763  60.8187199  15.2766340  30.6316631
  62.1552858  15.5795543  30.5779230  61.4012664  15.7930681  30.5404463
  71.2144888  15.6073152  36.0099174  71.9656215  15.9224829  36.3238728
  71.4067465  15.4052323  35.1833095  71.3536302  15.6240534  35.9342569
  70.4344888  13.4264527  17.6647390  70.8143853  13.4444156  16.8798505
  69.6937484  13.8718516  17.5438238  70.3813726  13.4946302  17.5310959
  60.1247449  15.1586503  27.6681786  59.9469211  14.7063111  28.3936701
  59.8366472  15.9612664  27.8520263  60.0560403  15.2109060  27.8025289
  75.7871031  16.4144220  26.9059176  76.2824696  15.6967215  26.8663196
  74.9770806  16.1115018  26.7913663  75.7414924  16.2641866  26.8832902
  71.2329642  20.2642033  19.0556180  70.4240965  19.9408707  19.0089490
  71.7404551  19.5575255  18.9884429  71.1879309  20.1123349  19.0386475
  61.8619919  17.6914226  24.7803545  60.9965439  17.6799917  24.6686316
  61.9618735  17.5044449  25.6274684  61.7494086  17.6620287  24.8892489
  77.8522849  19.1647907  29.5936305  78.2777921  18.6422329  29.0406730
  77.4879769  19.7628745  29.0724928  77.8609452  19.1758134  29.4345314
  67.4876929  27.4612125  28.3533650  67.8023488  28.2748513  28.3611432
  67.8970343  27.0762344  29.0215809  67.5945027  27.5240827  28.4537742
  74.4401449  22.8782172  25.9237462  74.9112627  23.5922434  26.0927447
  74.7761627  22.2780922  26.4597332  74.5596564  22.8953636  26.0269838
  76.5278433  24.4883485  38.1029534  76.6375399  23.6992046  38.4586281
  76.8569330  24.3989421  37.3003872  76.5930839  24.3589338  38.0371925
  75.0775395  22.6700106  32.6865155  74.5296341  22.0457989  32.4185220
  75.5388424  22.8594378  31.9709234  75.0642605  22.6059156  32.5415586
  70.4264059   9.6526055  20.3475022  71.2479753   9.8224368  20.1056717
  69.9633710   9.8073316  19.6241320  70.4795221   9.7007788  20.2046666
  64.8289949  21.4085233  28.0012259  65.4334807  21.3681067  27.3726079
  64.6217262  22.2556385  28.0316314  64.8878847  21.5273236  27.9128375
  74.6433721  23.6751178  29.2174496  75.4632095  23.5314145  29.4790791
  74.3627799  24.2997377  29.7590934  74.7230465  23.7461531  29.3362435
  60.0641232  20.3919851  27.8711182  59.9665510  19.5816122  28.1801238
  60.8470101  20.3711644  27.4857450  60.1657368  20.2686941  27.8598045
  73.4737997  35.9893078  24.5922641  73.2388181  35.1560730  24.4854909
  73.6123638  36.2697743  23.7783841  73.4593659  35.9076581  24.4564996
  75.7728084  28.1578808  27.4906948  75.1533116  27.5671456  27.3216963
  75.6711948  28.7490244  26.8571271  75.6665760  28.1582891  27.3711938
  75.4997217  31.7031090  29.7350517  75.3755914  32.2893536  30.3700336
  76.1515502  31.2091286  30.0362792  75.5770867  31.7169895  29.8736447
  75.0355322  40.8678749  25.8678847  74.5522900  41.5929238  25.8438430
  75.8478640  41.1654879  25.9789004  75.0846069  41.0181102  25.8806126
  77.8899519  41.3834925  26.0199127  78.5920098  40.8686914  26.0771883
  77.8097002  41.7109076  26.8246002  77.9823279  41.3549151  26.1471919
  77.6035862  25.7353354  18.0861747  77.4211435  25.9525235  17.2602739
  78.4661475  25.8492367  18.1420361  77.7040452  25.7843252  17.9716234
  77.2150294  37.5741276  25.5284735  78.0539194  37.8064209  25.5758496
  77.2462063  36.7045588  25.4591770  77.3432012  37.4798223  25.5249379
  77.8402997  37.9942152  29.8298040  78.3801222  37.8513283  30.5001412
  77.1572944  38.3938902  30.1982066  77.8195151  38.0321823  29.9832462
  73.2440142  34.2142442  29.9832462  72.9778558  33.3981559  30.1423452
  73.2578706  34.2595598  29.1127977  73.2064865  34.0999347  29.8785944
  77.1497889  29.0127527  16.5984220  76.4356066  28.7265706  17.0106652
  77.6341858  29.3524153  17.2390607  77.1157253  29.0209177  16.7539855
  77.9938749  27.7520821  32.6299469  77.3010545  27.2817800  32.8760201
  78.6099076  27.5259125  33.2041176  77.9823279  27.6487953  32.7508622
  73.6533556  35.0001222  27.2644206  73.4709129  34.9748108  26.4116498
  74.3883225  35.4700160  27.3033115  73.7347620  35.0662584  27.1442124
  76.7179308  31.7186225  33.7726315  77.4419280  31.7039255  34.2591209
  76.8195444  32.4281580  33.2748283  76.8397517  31.8210928  33.7705101
  73.6204466  31.8794723  27.4143272  74.1977969  31.7431173  28.0535518
  72.9218528  31.4230507  27.6688857  73.6025488  31.7916989  27.5465562
  69.0963300  30.7306615  24.1291091  69.1823551  30.3538484  24.9104621
  69.7239097  30.3567061  23.6511049  69.2019850  30.6192098  24.1736568
  74.6839258  39.4998349  28.1822452  74.7243403  39.7713200  27.3542231
  75.2433782  40.0240257  28.5980240  74.7722604  39.6174104  28.1214340
  76.1353844  38.0840297  23.0076378  75.3091962  38.3302035  22.8810656
  76.1965836  38.0052378  23.8738436  76.0228011  38.1085246  23.1165322
  78.3529868  24.1509238  23.9671818  77.4852294  24.2231838  24.0329427
  78.6405073  24.9531317  24.1559793  78.2669616  24.2803386  24.0046584
  78.8558589  42.6784560  23.7755557  78.6358884  42.3881915  24.5682224
  78.6353111  42.0199515  23.2473470  78.7906183  42.5384268  23.8144466
  77.7675536  34.7657877  26.0411259  77.4788785  34.1395348  26.5756986
  78.6358884  34.7078164  26.1075939  77.8535788  34.6645421  26.1302214
  77.9707810  36.4053128  21.9653624  78.7253778  36.7866167  22.1789087
  77.3778422  36.8564271  22.4200321  77.9944523  36.5281955  22.0636502
  76.2797220  27.6267498  21.4088694  75.9922016  27.2568768  20.6720641
  76.9667688  28.0962353  21.1472399  76.3386118  27.6414467  21.2603770
  76.7658509  33.8978518  31.9610239  77.2779605  34.1762772  31.3118998
  76.4794851  34.6367812  32.3273052  76.7993372  34.0480872  31.9200117
  73.8525415  28.4048710  22.2573975  73.9541551  29.2074872  22.5854951
  74.6481302  28.2036046  21.9597056  73.9853320  28.4934609  22.2609331
  74.6689147  28.5195888  29.9995097  74.5274639  27.6679829  30.1239605
  74.9529710  28.5624549  29.1757303  74.6896993  28.3995638  29.8962721
  75.4379452  26.4326236  33.3172547  74.9021642  25.8206594  33.6333314
  75.4997217  27.0074372  33.9706214  75.3675085  26.4273164  33.4607974
  77.5568208  33.8406970  23.1292602  77.7132827  33.7753773  23.9848594
  77.8968801  34.6155523  22.9171281  77.6301443  33.9456168  23.2247196
  74.1302470  31.0241921  23.4453369  74.5101434  31.4426466  22.7813636
  73.5557834  31.6055376  23.7522212  74.1013794  31.1719779  23.3930110
  77.7733271  32.5902325  28.0768863  76.9321278  32.4906200  28.2847757
  77.9823279  33.3597806  28.4283184  77.6797964  32.6894369  28.1596178
  75.2508838  30.2121862  25.9053614  74.8565536  30.2864874  25.1303724
  74.6948955  30.5979809  26.4561976  75.1111650  30.2803637  25.8721274
  77.6642079  34.9846088  29.4960496  77.0730012  35.6255586  29.4663511
  78.4263103  35.4083705  29.4691796  77.6890340  35.1421926  29.4875643
  78.0602702  26.1448085  30.1628514  78.5204183  26.2187015  30.9003638
  78.1058808  26.9429339  29.8128335  78.1353257  26.2742232  30.2201270
  74.8490480  29.7737276  32.5380230  75.7116093  29.6732985  32.4517560
  74.5182263  29.1931985  31.9765802  74.9275676  29.6728903  32.4425636
  78.2092266  28.5979725  29.1990648  77.5845336  28.6098117  28.5916601
  77.8737860  29.0739900  29.8481888  78.0677757  28.6698242  29.2047217
  78.3934014  26.9404844  15.2563333  78.0446819  27.5924569  15.7194883
  77.9130460  26.9261957  14.5287204  78.2704258  27.0347897  15.2174425
  74.9217941  36.6580185  30.6394413  74.3917866  35.9672624  30.6889387
  75.1943034  36.6490371  29.8107121  74.8842663  36.5547317  30.5241829
  77.4783011  30.2072873  31.4165517  77.6376498  29.4516197  31.8217239
  77.2975904  30.7563812  32.0706254  77.4748370  30.1766687  31.5728223
  70.2013783  33.3307949  27.9962761  70.0957232  33.2854794  27.1314845
  69.4514003  33.6761730  28.2777046  70.0749386  33.3748857  27.9100091
  78.2005662  24.7816675  35.8755671  78.8258366  24.2378808  36.1485103
  77.7456142  24.3011593  35.3063461  78.2253923  24.6306157  35.8317265
  75.3011133  32.6298326  21.3671501  75.8103363  33.2262833  21.7482806
  75.7745405  32.3624299  20.6847920  75.4454509  32.6784141  21.3226023
  77.6601665  29.2654584  24.2344681  76.9413654  29.6818717  24.5017545
  78.0314027  29.8308823  23.6836319  77.6093597  29.4103866  24.1927488
  75.4390999  28.5604137  35.2547273  75.2693589  29.2205512  34.7095479
  74.9956949  28.7710698  35.9759762  75.3490333  28.6890119  35.2808902
  72.3393064  31.4651003  30.5135763  71.7919783  30.7951648  30.6316631
  73.1285442  31.0980851  30.5779230  72.3745247  31.3115989  30.5404463
  71.0980033  30.6771810  27.6681786  70.9201794  30.2248419  28.3936701
  70.8099055  31.4797972  27.8520263  71.0292986  30.7294368  27.8025289
  72.8352503  33.2099534  24.7803545  71.9698022  33.1985225  24.6686316
  72.9351319  33.0229757  25.6274684  72.7226670  33.1805595  24.8892489
  75.8022533  36.9270541  28.0012259  76.4067390  36.8866375  27.3726079
  75.5949845  37.7741693  28.0316314  75.8611430  37.0458544  27.9128375
  71.0373815  35.9105159  27.8711182  70.9398093  35.1001430  28.1801238
  71.8202685  35.8896952  27.4857450  71.1389952  35.7872249  27.8598045
   4.6299765  22.6521752  61.1062592   4.5993769  23.5066389  61.2780862
   5.2281113  22.3517045  61.6648736   4.7136923  22.7338249  61.2137395
   2.4516339  25.2274054  59.3780902   2.3355865  25.9781740  59.8073040
   3.2472226  24.9698008  59.6276989   2.5520929  25.3008901  59.4784994
   1.1064078  22.5766493  59.1892927   0.5775549  22.7926126  59.8490233
   1.6289098  23.2702631  59.1093897   1.1052531  22.7109630  59.2748526
   6.5612131  28.1512797  64.5625972   5.7309834  28.3623441  64.7259388
   6.5121383  27.3249852  64.2868255   6.4318866  28.0602403  64.5463337
   3.8176446  28.8212152  64.6990687   3.3811678  28.8248894  65.4549659
   3.4839362  29.5017651  64.2670265   3.7039066  28.9224607  64.7471520
   6.9520792  25.5393071  63.5910325   7.6137226  24.9783740  63.4906233
   6.3112204  25.0445102  63.9163016   6.9549660  25.3829481  63.6242665
   3.2385623  26.5558454  63.3322313   3.4741212  26.7003653  62.5049164
   3.3875187  27.3200862  63.7253827   3.2951426  26.6897508  63.2685917
   5.0676080  25.3960120  61.1691917   5.3984297  25.9287760  60.5632012
   5.6409168  25.4499008  61.8253868   5.2009759  25.4829689  61.1769699
   2.5318856  27.6924086  60.8262449   3.0976889  28.3517296  60.7420992
   1.8846759  28.0373784  61.2978851   2.5197612  27.8406027  60.8835205
   3.7281554  27.7430314  57.6188086   3.3488363  26.9567452  57.6117375
   3.0647799  28.2917171  57.4759730   3.5740029  27.7075138  57.5968882
   1.9741653  29.9875805  57.9539771   2.0561490  30.7942791  57.6301222
   2.4591395  30.0071764  58.6780545   2.0578811  30.1096467  58.0126670
   6.1114573  27.5936125  59.0132231   6.4948179  28.3427481  59.2430328
   5.3158686  27.8401945  58.7544221   6.0508355  27.7405819  59.0089805
  15.6032348  38.1707060  61.1062592  15.5726353  39.0251697  61.2780862
  16.2013697  37.8702353  61.6648736  15.6869506  38.2523557  61.2137395
   8.8032033  37.2582711  65.8615523   7.9469929  37.4191209  65.9124640
   8.8499687  36.3874775  65.8820584   8.6831145  37.1533513  65.8721589
   3.1873173  46.7945429  61.6252754   2.4356072  46.4160967  61.3968799
   3.6359185  46.8263863  60.8771565   3.1422840  46.7431036  61.4810257
  12.1125750  43.5269237  75.4675979  12.8192517  43.0321268  75.5962913
  12.3013685  43.9678318  74.7378637  12.2453655  43.5187587  75.3785024
   8.6398133  47.2170799  57.0538301   8.3049501  47.8947720  56.6182524
   9.1525003  46.8276110  56.4655173   8.6663714  47.2595377  56.9025093
   8.1802424  49.1685067  62.9949413   8.5641803  49.7371966  62.4554188
   8.1161565  48.4434578  62.5155229   8.2275851  49.1460531  62.8443276
  11.6483854  39.3174755  68.5047174  12.1939814  39.9959842  68.5641144
  11.5900730  39.1762216  67.6448756  11.7199768  39.3966757  68.3859235
   4.7657929  46.8063821  63.8915527   4.8668292  45.9964175  64.2012655
   4.1699674  46.7120768  63.2615205   4.6930468  46.6728849  63.8441765
  13.4248923  40.7459362  59.3780902  13.3088449  41.4967048  59.8073040
  14.2204809  40.4883315  59.6276989  13.5253512  40.8194209  59.4784994
   4.6058669  51.7241410  65.2930383   5.2496124  52.1654574  65.6826541
   4.9314924  50.9194837  65.2060642   4.7490497  51.6706605  65.3375860
   5.3079248  44.7353385  60.6650245   5.6295089  45.2758593  60.0611553
   5.9551345  44.1650157  60.7972534   5.4505303  44.7312560  60.5957280
   7.3580956  36.7369380  60.7484631   8.0561121  36.9157508  61.2406095
   7.6733289  36.2139719  60.1255021   7.5076294  36.6863152  60.7286642
   7.5468892  43.1239825  60.7364423   7.9862527  42.5156926  61.1819196
   7.3973555  42.7447199  59.9649888   7.5890357  42.9778296  60.6883590
   5.0140535  41.7183837  67.9383248   5.6589537  41.2256280  67.6194197
   5.2542312  41.8608624  68.7649327   5.1451120  41.6661279  68.0132782
   7.5526626  44.5638743  67.5890141   7.8349869  43.7690149  67.3676897
   8.2812787  45.0419330  67.6095202   7.7016190  44.5173340  67.5593156
   5.5307820  32.1061777  64.8305906   5.2011150  32.5572920  64.1609605
   4.8552822  32.0277940  65.3778912   5.3818256  32.1612912  64.8129129
  11.1478228  41.4767006  57.6895192  11.0629523  42.3327973  57.8344761
  11.6362612  41.2011331  58.3577351  11.2067126  41.5624328  57.8097274
  12.7384228  28.0947300  63.0755517  12.4237669  28.7850778  63.5075939
  12.2211169  28.0392082  62.3741017  12.6148698  28.1882188  63.0352466
  12.0796662  38.0951801  59.1892927  11.5508133  38.3111434  59.8490233
  12.6021681  38.7887939  59.1093897  12.0785115  38.2294938  59.2748526
  17.5344714  43.6698105  64.5625972  16.7042418  43.8808749  64.7259388
  17.4853967  42.8435160  64.2868255  17.4051450  43.5787711  64.5463337
   3.9696269  41.9915017  57.9900395   3.3853485  42.4965049  58.3966259
   3.5666365  41.7657404  57.2496987   3.8235573  42.0323266  57.9405420
   5.5954452  46.5001959  67.3973881   5.0781394  46.1409374  66.7935189
   6.2928843  45.9764134  67.4079947   5.6220033  46.3699647  67.3104140
   9.2518044  46.9496773  73.3590054   9.3401390  46.7622914  74.2068265
   9.6807757  46.3034203  72.9594901   9.3280146  46.8259781  73.4261806
   8.4273484  38.2380669  56.4669316   8.6669487  38.4458653  55.6544659
   8.7489325  37.4338178  56.5758260   8.5110642  38.1494771  56.3629869
   3.7363774  30.1674065  60.3128854   4.4909742  30.5352382  60.0745904
   3.5591309  30.5413620  61.0808033   3.8218252  30.2772253  60.3913742
   2.3784495  48.2225954  64.9444347   3.0805075  47.7077944  65.0017103
   2.2981978  48.5500106  65.7491222   2.4708256  48.1940181  65.0717139
  17.0298673  36.3168506  68.3576393  16.1927094  36.3870693  68.5923987
  16.9986904  36.3193001  67.4850695  16.9016955  36.3278733  68.2635941
   2.0920839  32.5744384  57.0106967   1.9096412  32.7916265  56.1847959
   2.9546452  32.6883397  57.0665581   2.1925428  32.6234282  56.8961454
   1.7035271  44.4132306  64.4529955   2.5424170  44.6455239  64.5003716
   1.7347040  43.5436618  64.3836990   1.8316988  44.3189253  64.4494599
   2.3287974  44.8333182  68.7543260   2.8686199  44.6904313  69.4246632
   1.6457920  45.2329932  69.1227286   2.3080128  44.8712853  68.9077682
   7.7720558  29.5770795  60.0455990   8.5006718  29.3986750  59.5994147
   7.8615451  30.4188875  60.2563169   7.8927220  29.6754673  60.0109508
  11.7528859  40.5124182  63.9488284  12.5086374  40.9455697  63.9877193
  11.8591183  39.8628952  64.5222921  11.8799029  40.4801666  64.0386310
  14.7909030  44.3397460  64.6990687  14.3544262  44.3434202  65.4549659
  14.4571945  45.0202959  64.2670265  14.6771650  44.4409915  64.7471520
  14.7106513  31.3811287  66.9420115  15.3532421  31.4509392  67.5282031
  14.9629533  30.7140510  66.4399657  14.8428645  31.2937636  66.9547395
   1.6382866  35.8518557  55.5229440   0.9241043  35.5656736  55.9351872
   2.1226834  36.1915183  56.1635827   1.6042229  35.8600207  55.6785075
   9.5208497  48.2915894  69.6700293   8.7223742  48.0515394  69.9274162
   9.9694508  48.3430287  70.4167341   9.4683108  48.2638286  69.8185218
  17.9253376  41.0578379  63.5910325  18.5869810  40.4969048  63.4906233
  17.2844788  40.5630410  63.9163016  17.9282243  40.9014788  63.6242665
   8.8130184  44.3548511  55.8991248   9.2281332  44.0233535  55.2075744
   7.9822113  44.1217413  55.7711385   8.7518192  44.2719767  55.7782095
  14.2118207  42.0743762  63.3322313  14.4473796  42.2188961  62.5049164
  14.3607770  42.8386170  63.7253827  14.2684010  42.2082816  63.2685917
  16.0408663  40.9145428  61.1691917  16.3716880  41.4473068  60.5632012
  16.6141751  40.9684316  61.8253868  16.1742342  41.0014997  61.1769699
  11.2540552  38.7610330  61.8515497  11.3487407  39.4999625  62.3055123
  10.6299396  38.3327806  62.2850062  11.1749583  38.8071651  61.9823645
   9.5093026  41.9396543  72.5005778  10.0831888  41.3023787  72.6554342
   9.4307830  41.9400625  71.6315436   9.5826261  41.8461654  72.3952189
  11.5063574  40.6059070  55.0852449  11.4243736  40.6761257  55.9507436
  12.1443294  41.1688814  54.8936190  11.5883411  40.6998041  55.1842399
   4.8656745  40.3719808  64.5526976   4.6075989  39.5391543  64.5258275
   4.9205228  40.5977421  63.7119476   4.8356523  40.2817579  64.4247112
   9.9457795  32.4748259  64.6531068   9.2414122  31.9857444  64.8114988
   9.9942769  32.4870733  63.7819513   9.8487847  32.4037907  64.5470408
   3.8391457  37.9257571  65.0391870   3.2641048  38.0849739  65.6755831
   3.4627133  37.2892980  64.5760321   3.6994269  37.8555384  65.0646429
   7.5064746  36.3980920  69.8984249   7.1179178  35.9735138  69.2436440
   6.8419444  36.6463070  70.4061276   7.3511673  36.3719641  69.8772117
  17.1488015  36.1555925  62.6732079  16.8924580  35.3435866  62.4829962
  17.9917329  36.1633492  62.4462266  17.2354040  36.0367922  62.6116896
  11.3291107  30.0955549  67.4108233  11.7101619  29.4133720  67.7976107
  10.5254392  29.8065151  67.2283898  11.2667569  29.9522597  67.4412289
   8.6103684  40.6279525  58.0961056   9.4244323  40.9194417  57.9843827
   8.5462825  39.9739387  57.5219349   8.7206423  40.5744719  57.9949893
  14.8313174  43.3105521  72.5090631  14.5951812  42.4793585  72.3902692
  15.4756403  43.2591128  73.0945476  14.8907845  43.1803209  72.5776525
   4.4811592  44.1001042  63.2233368   5.1185539  43.8612790  63.7685161
   4.9066664  44.3038201  62.4886529   4.6387758  44.0952052  63.1950525
   5.1214407  39.3203332  57.5608257   5.5059560  39.1011038  58.3124802
   4.8726028  40.1466277  57.6909334   5.1416480  39.4101478  57.6909334
  15.8549595  43.0949969  68.5718926  15.5495412  43.8278026  68.9332242
  15.1355810  42.6887899  68.2911712  15.7036937  43.1431702  68.5832063
   6.8633064  44.5773465  64.9027154   6.9372072  44.4148636  65.7569004
   7.6802571  44.7663654  64.6587636   6.9949423  44.5810207  64.9925180
  21.5551387  39.7342970  67.8987270  21.4875887  39.7538929  67.0289857
  21.5407049  40.5773297  68.1242941  21.5430143  39.8616705  67.8039747
   2.8414845  30.9900268  62.8917038   1.9737270  31.0622868  62.9574647
   3.1290049  31.7922347  63.0805013   2.7554593  31.1194416  62.9291804
  11.9647733  31.1378128  71.2228360  12.7101325  30.9487938  70.8091785
  11.5485038  31.6636366  70.6642216  12.0132708  31.1880273  71.0792933
   5.4037650  47.5408208  59.6340628   5.6935948  47.1497189  58.9099854
   6.1341131  47.7224913  60.0745903   5.5544534  47.5102021  59.5923435
  19.3410004  38.5087356  66.1733865  19.8917926  37.8755425  66.4130957
  19.3254120  39.0402749  66.8649369  19.4195201  38.4936304  66.3112723
   5.9932395  42.3425954  70.7193758   5.4944089  43.0541721  70.7978647
   6.8032619  42.6626620  70.6811920   6.0388502  42.4952802  70.7250327
   3.3443565  49.5175590  62.7000777   3.1243861  49.2272945  63.4927444
   3.1238087  48.8590545  62.1718690   3.2791160  49.3775298  62.7389686
   2.2560513  41.6048907  64.9656479   1.9673761  40.9786378  65.5002206
   3.1243861  41.5469194  65.0321159   2.3420765  41.5036451  65.0547434
  13.0438410  36.7483690  65.2838461  12.7003176  36.0274025  65.6345711
  13.1431453  36.5397541  64.4416819  13.0080453  36.6107893  65.2110141
   5.5111521  50.8904980  61.4831470   6.1635579  50.3581422  61.7122496
   4.8137130  50.5373632  61.8699344   5.5042239  50.7594503  61.5743637
   2.4592786  43.2444158  60.8898844   3.2138754  43.6257197  61.1034307
   1.8663399  43.6955301  61.3445541   2.4829500  43.3672985  60.9881722
  13.5051440  43.2109394  60.8262449  14.0709472  43.8702604  60.7420992
  12.8579343  43.5559092  61.2978851  13.4930196  43.3591335  60.8835205
   3.7791013  44.4152719  66.2638959   3.2571766  44.5553011  66.9490824
   4.1665033  43.6563383  66.4541077   3.7594714  44.3238243  66.3940036
   9.9758018  46.1548178  60.2499528   9.7344694  45.4216039  59.8426593
  10.1559351  46.7035035  59.5965862   9.9665642  46.1270569  60.0929751
   5.2057338  41.4456738  61.6620450   5.0100121  42.0531473  61.0680753
   5.4291684  40.7524682  61.1812124   5.2091979  41.4334264  61.5036531
   3.6035868  38.3311476  61.7801319   4.3258520  38.4952634  61.3205125
   3.1243861  39.0521141  61.6740659   3.6399599  38.4609706  61.6966933
  11.5629376  34.6675275  67.1598004  10.7240476  34.6936554  66.9236267
  11.6333743  35.3146010  67.7403350  11.4497769  34.7671401  67.2107121
  10.0098654  31.5660652  61.8925620  10.7125007  31.3668400  61.4145578
   9.7442843  30.7936594  62.1994463  10.0745286  31.4223618  61.8671061
  15.4386900  39.8743262  64.4459246  15.3520874  40.0298688  65.2994024
  14.9837380  40.5181337  64.0718651  15.3590156  39.9919017  64.5166352
   9.3112716  37.1954009  63.0684805   9.0647430  37.1149760  63.9021594
   9.6397839  36.4107476  62.8747333   9.3233959  37.0680274  63.1632328
  13.2060765  43.9037368  66.8571586  13.0675124  44.6018414  67.3620329
  12.4260762  43.7486024  66.5007768  13.0703991  43.9837535  66.8797860
  11.5438850  40.2033743  73.1093968  11.5386888  39.3313560  73.1136394
  12.2499844  40.4021912  72.6363424  11.6483854  40.1037617  73.0401003
   5.2709743  39.9310727  72.4807788   5.4153119  40.5111935  71.8450898
   5.6185392  40.3087024  73.1857643   5.3437204  40.0731431  72.4906783
   7.4429660  39.1300896  70.2632920   6.6952974  39.3231910  69.8581198
   7.5971186  38.3046115  70.0257041   7.3552088  39.0366007  70.1678326
   4.3437498  48.1213499  69.3468815   4.4927062  47.5616415  68.6942219
   5.1237500  48.2005501  69.7301334   4.4811592  48.0499064  69.3065764
  14.7014137  43.2615622  57.6188086  14.3220946  42.4752760  57.6117375
  14.0380383  43.8102479  57.4759730  14.5472612  43.2260446  57.5968882
   6.8690799  48.2928142  70.6253306   6.7934470  47.6236952  71.1804094
   6.7980658  48.9945930  71.1393972   6.8471406  48.2973049  70.7830154
  12.1558763  26.2041321  65.0222166  12.2742331  26.6617785  64.2889469
  11.9820939  25.3986583  64.7358384  12.1477934  26.1535094  64.8723100
   7.5261046  46.8129141  61.4576912   8.2910937  46.5438785  61.1359576
   7.4239136  46.3279151  62.1746975   7.6242541  46.7018705  61.5156739
   5.5613815  35.0153550  67.9970147   4.7709890  34.8345010  68.3187483
   5.9574438  34.2380503  67.9800442   5.5030692  34.8741011  68.0422696
  10.0479706  43.8441325  53.4376861  10.8152691  43.9041449  53.0282713
   9.6011015  43.2721766  52.9533180  10.0953133  43.7677900  53.3054571
  10.9457502  42.6495980  65.7229593  10.2702503  42.4181213  66.2242980
  10.9549878  42.0417163  65.0971698  10.8476006  42.5254906  65.7045746
   8.0751646  37.4913809  72.4793646   8.0110787  38.3523766  72.3513783
   8.2148833  37.1745803  71.6789198   8.0867116  37.5713976  72.3421859
  12.9474236  45.5061113  57.9539771  13.0294074  46.3128099  57.6301222
  13.4323978  45.5257072  58.6780545  13.0311394  45.6281775  58.0126670
   6.7570740  40.1845949  66.6209849   6.3332989  40.3850448  65.8848868
   6.5815595  39.3374797  66.7334149   6.6681620  40.0894730  66.5283539
   2.0453184  40.6798000  62.0537822   2.2017804  40.6144803  62.9093814
   2.3853778  41.4546553  61.8416501   2.1186419  40.7847198  62.1492416
   8.5832329  40.0555884  60.9231185   9.1247875  39.5526265  61.3869806
   8.8978888  40.0021078  60.1120670   8.7096726  39.9735305  60.8714997
  12.4549436  44.2658531  78.0358097  13.2684302  43.9943680  78.1963230
  12.2944403  43.9666071  77.2318293  12.5519385  44.1813457  77.9403503
   6.7518779  45.4473235  58.2071213   6.8211599  44.5887774  58.3464213
   7.5307234  45.6645116  57.8790238   6.8771629  45.3526099  58.1788370
   9.7321598  34.9492188  70.9753485   9.9463568  34.3103102  70.4216839
   9.1155498  35.3938012  70.5461347   9.6726928  34.9202332  70.8303917
  11.1426266  47.8710937  62.4207706  10.7506058  47.5677652  61.7030573
  11.2979339  48.7080026  62.2312660  11.1079856  47.9494773  62.2864203
  11.8960686  36.5581253  71.9136793  11.0837368  36.2507144  71.9949965
  12.3550621  36.0780254  72.4779505  11.8441071  36.4417746  72.0091387
  11.3065941  44.4360925  62.3613737  10.9480596  44.6075568  63.1377769
  10.8204652  44.8974131  61.8041735  11.1824638  44.5299896  62.3939006
   9.1236327  28.0592124  65.9640828   8.2529885  28.0330845  65.9174138
   9.3776668  27.8869316  65.1466674   9.0329887  28.0302268  65.8360965
   6.0954307  40.1160091  54.9013971   6.3846831  40.8924973  55.1757546
   6.1826105  39.6048822  55.6028471   6.1508563  40.1552009  55.0456469
   6.1485468  30.0698352  67.4214299   5.6323956  29.3778544  67.5465878
   5.5879396  30.7369129  67.3676897   5.9891981  30.0661610  67.4320365
  12.4670680  45.3264821  73.3080938  13.1050401  44.8325017  72.9743394
  11.8244772  45.2542222  72.7233165  12.4664907  45.2423830  73.1723293
  14.1927681  37.1753967  67.8746853  13.7655289  37.0880316  67.1194953
  13.5553734  37.2831743  68.4601697  14.0357288  37.1786627  67.8492295
  12.5224937  46.0184630  69.9486295  13.3117315  45.6673694  70.0688376
  12.6968535  46.8321018  69.6862928  12.6645219  46.0870487  69.9274163
   2.2618248  39.4293355  67.0014083   1.4206254  39.3297230  67.2092977
   2.4708255  40.1988836  67.3528404   2.1682940  39.5285399  67.0841398
  11.3758761  30.0294186  64.5102713  11.5808355  29.9616494  65.3559710
  11.0485185  30.8353008  64.4423890  11.3574009  30.1380127  64.6262368
   6.0734912  37.3574755  66.2511681   5.7698050  36.8030743  66.8522089
   5.3714333  37.5366964  65.7639715   5.9251122  37.3019537  66.2681387
   5.1301009  34.6675274  60.8156383   5.4060744  33.9494187  60.4033950
   5.7299679  35.2660194  60.6077489   5.2594274  34.6495645  60.7237144
  14.6292449  30.5825951  63.9905478  14.0166763  31.0696353  64.3759210
  14.7256624  29.9069441  64.5343130  14.5530347  30.5544259  64.1284337
   8.6311530  32.3388792  59.0902978   9.0855277  32.5099352  59.8150822
   9.1051576  31.7256902  58.6900753   8.7679850  32.2739677  59.1376739
   2.1527055  41.8237118  68.4205716   1.5614989  42.4646616  68.3908731
   2.9148079  42.2474735  68.3937016   2.1775316  41.9812956  68.4120863
  18.2717477  41.6542887  69.4182995  18.3300601  42.1029536  70.1642971
  17.6383945  42.0641700  68.9813075  18.1868772  41.7816622  69.4635543
  11.9116572  47.2746429  65.8537741  11.7136260  47.7637244  65.1593952
  11.2904283  47.4787671  66.4321874  11.7904136  47.3762967  65.8360964
   5.9724550  39.0431326  60.1947985   6.7166595  39.4305602  60.4330935
   6.1185246  38.1988751  60.3588473   6.1035135  38.9761799  60.2541955
   7.8904125  30.8381585  65.2279846   7.0440170  31.0104393  65.1021196
   7.8875258  30.0330929  65.5645675   7.7651275  30.7442614  65.2590973
   8.9602426  34.6156799  66.0941904   8.4862380  34.0898561  66.6047215
   9.3320562  34.0686272  65.5256766   8.9452315  34.4572796  66.0857052
  15.2239156  39.6759175  67.5048685  14.9837379  38.8365590  67.5091111
  15.7031164  39.7559342  68.2289458  15.2591340  39.5640575  67.6123487
  10.8885925  35.5093354  59.1567658  10.3608944  35.5922098  58.4673367
  11.3481634  36.2511225  59.1532303  10.8787776  35.6314016  59.0542353
  17.2244343  36.4560632  65.4577944  16.9854113  36.4156466  64.6198729
  17.3878245  37.3031784  65.5843665  17.2134647  36.5752717  65.3531426
  13.8290374  40.8410581  71.3882989  14.5524572  40.3883108  71.2094009
  13.5640336  41.1215247  70.6055317  13.8971647  40.8161550  71.2461704
   2.6977242  35.4370755  68.1235868   2.0730312  35.4489147  67.5161821
   2.3622837  35.9130930  68.7727108   2.5562734  35.5089272  68.1292437
   2.8818991  33.7795874  54.1808553   2.5331795  34.4315599  54.6440103
   2.4015436  33.7652987  53.4532424   2.7589235  33.8738927  54.1419645
  10.4423008  44.0796917  58.2877315  11.1657207  44.5455030  58.1441888
  10.0023599  44.1470527  57.5374912  10.4838700  44.1580754  58.1562097
   9.6109163  40.9394460  69.5378004   8.9966156  40.3952510  69.8326639
  10.1276448  40.4258696  69.0583820   9.5964825  40.7830869  69.5102233
   8.8505460  42.0098730  67.2722303   8.4233068  41.3848448  66.8387738
   8.8430405  41.7273652  68.0981310   8.7864601  41.8751510  67.3302130
   7.1791170  32.8867484  67.4864837   7.2033657  32.3527597  66.7977617
   7.4302644  32.3784793  68.1490427   7.2201089  32.7328388  67.4829481
   3.4592492  31.6138303  66.8670581   3.4990864  32.1147509  67.5805289
   2.6342157  31.7048696  66.5976504   3.3432018  31.7020119  66.9321119
   4.8806856  38.1298812  69.1644480   4.0498785  38.2972630  68.9579728
   4.8258373  37.7534763  69.9493365   4.7496270  38.0988544  69.2493008
   3.2542899  36.4054404  59.6934598   3.3945860  36.9026868  60.3963239
   3.7525432  35.7040698  59.8348811   3.3483980  36.3756383  59.8186177
   3.2843122  37.2721515  57.0227175   3.9188201  37.8681940  56.9576636
   3.3668733  36.9724973  57.8373045   3.3899673  37.3162423  57.1330261
  16.2625688  39.8036992  69.8913539  16.8543528  40.4434243  69.9231737
  16.6984682  39.1060029  70.1805606  16.4144119  39.7955343  69.9394371
   4.8622105  33.2035490  56.9972617   5.1837946  32.7238573  56.3431879
   5.1249048  34.0135136  56.8063428   4.9488130  33.2525388  56.8728109
   8.0919077  44.2254365  70.5171433   7.5844168  44.7790212  70.9612063
   7.7945724  44.2862655  69.6990207   7.9723962  44.3160676  70.4619889
  10.2581260  32.5907684  69.3596096  10.6836331  32.1380211  68.7479622
   9.6438253  32.0367755  69.6360883  10.2309905  32.4421661  69.3101121
  10.7026858  48.1417622  58.4475376   9.9856167  47.9678485  57.9822614
  11.3533595  47.9070195  57.9150862  10.6928708  48.0813415  58.3004594
   8.6975482  29.0622784  62.7686673   8.0543800  28.9120430  63.3371811
   8.3574889  28.8165129  62.0035777   8.5520560  29.0034907  62.7389688
  13.2874829  37.0182211  62.1916681  12.6166019  37.5611913  62.0629747
  13.9814579  37.4877066  61.9498376  13.2903696  37.1680482  62.1372209
   7.3361563  49.1578923  67.4228440   7.1127217  48.3997752  67.7912466
   6.8471406  49.1876944  66.7008879   7.2305012  49.0501147  67.3705181
  13.4502956  33.4738095  65.1007055  13.8030566  33.0467818  65.7752853
  12.5917758  33.3888938  65.2308131  13.3752401  33.3982835  65.2202065
   2.1486641  36.1045614  63.1589901   1.4298630  36.5209747  63.4262765
   2.5199004  36.6699853  62.6081539   2.0978573  36.2494896  63.1172708
  11.4486222  36.7373463  69.0491897  11.4284149  36.5556758  69.9026676
  11.4965423  37.6085482  69.0251480  11.4520863  36.8390001  69.1715192
   9.3932552  43.3260655  74.9740373   9.3528407  42.6810332  74.3885529
  10.2055870  43.2697273  75.2865785   9.5075706  43.2219622  74.9337323
   5.9840020  49.3779381  64.8765524   5.5700418  48.7153511  64.4869366
   6.6687394  49.5257240  64.3561218   6.0238391  49.3020039  64.7422021
   9.3505314  48.5369466  65.6289141   8.9521597  48.6471737  64.8609961
   8.7356533  48.7451533  66.2115701   9.2004203  48.5843034  65.6020440
   7.9233216  35.1443614  58.4963281   7.3298055  35.4660611  57.9447848
   7.9608493  34.2984710  58.2884387   7.8407605  35.0667942  58.3846052
  14.8827016  28.5956506  66.0291367  14.3757881  27.8885646  65.9612545
  15.6794450  28.2649695  66.1592444  14.9254256  28.4429658  66.0390362
  10.7991032  35.1023119  61.9265031  10.5704725  35.1255820  61.0843389
  11.0589109  34.2780586  62.0460041  10.8037220  34.9839199  61.8190228
   3.8535795  33.6399665  63.2219226   4.3293161  34.0016745  62.5869408
   3.3524394  34.2956133  63.5019369   3.8501154  33.7893854  63.1695967
  17.0847156  43.1121433  59.0132231  17.4680762  43.8612789  59.2430328
  16.2891270  43.3587253  58.7544221  17.0240939  43.2591127  59.0089805
   5.8962448  35.7840865  56.5892610   6.2761413  35.8020494  55.8043725
   5.1555044  36.2294854  56.4683458   5.8431286  35.8522639  56.4556179
  13.5247738  34.0923056  62.1768189  13.5241965  33.9371713  63.0352465
  13.3203919  34.9386043  62.1209575  13.4947516  34.1943677  62.2956129
  11.2488591  38.7720558  65.8304396  11.7442256  38.0543553  65.7908416
  10.4388366  38.4691355  65.7158883  11.2032484  38.6218204  65.8078122
   6.6947202  42.6218371  57.9801400   5.8858525  42.2985045  57.9334710
   7.2022111  41.9151593  57.9129649   6.6496869  42.4699687  57.9631695
  13.3140409  41.5224245  68.5181525  13.7395481  40.9998667  67.9651950
  12.9497329  42.1205083  67.9970148  13.3227012  41.5334472  68.3590534
   2.9494489  49.8188463  67.2778870   3.2641048  50.6324851  67.2856652
   3.3587903  49.4338681  67.9461029   3.0562587  49.8817165  67.3782962
   9.9019009  45.2358510  64.8482682  10.3730187  45.9498772  65.0172667
  10.2379187  44.6357260  65.3842552  10.0214124  45.2529974  64.9515058
  10.5392955  45.0276444  71.6110375   9.9913901  44.4034327  71.3430440
  11.0005984  45.2170716  70.8954454  10.5260165  44.9635494  71.4660806
  13.3486820  33.0961798  68.9961567  12.7649808  33.5971005  68.5839135
  13.6691114  32.5891354  68.3625890  13.3099995  33.0953633  68.8420074
   5.8881619  32.0102393  59.2720242   6.7097313  32.1800706  59.0301937
   5.4251270  32.1649654  58.5486540   5.9412781  32.0584126  59.1291886
  10.1051281  46.0327516  68.1419716  10.9249655  45.8890482  68.4036011
   9.8245359  46.6573715  68.6836154  10.1848025  46.1037868  68.2607655
  26.5764932  53.6892368  61.1062592  26.5458936  54.5437005  61.2780862
  27.1746281  53.3887661  61.6648736  26.6602090  53.7708865  61.2137395
  19.7764617  52.7768019  65.8615523  18.9202512  52.9376517  65.9124640
  19.8232270  51.9060083  65.8820584  19.6563728  52.6718821  65.8721589
  14.1605756  62.3130737  61.6252754  13.4088656  61.9346275  61.3968799
  14.6091768  62.3449171  60.8771565  14.1155423  62.2616344  61.4810257
  23.0858333  59.0454545  75.4675979  23.7925101  58.5506575  75.5962913
  23.2746269  59.4863626  74.7378637  23.2186239  59.0372895  75.3785024
  19.6130716  62.7356106  57.0538301  19.2782085  63.4133028  56.6182524
  20.1257587  62.3461418  56.4655173  19.6396297  62.7780685  56.9025093
  19.1535008  64.6870375  62.9949413  19.5374387  65.2557274  62.4554188
  19.0894149  63.9619885  62.5155229  19.2008435  64.6645839  62.8443276
  22.6216438  54.8360063  68.5047174  23.1672398  55.5145150  68.5641144
  22.5633314  54.6947524  67.6448756  22.6932352  54.9152065  68.3859235
  15.7390513  62.3249129  63.8915527  15.8400876  61.5149483  64.2012655
  15.1432258  62.2306076  63.2615205  15.6663051  62.1914157  63.8441765
  24.3981506  56.2644670  59.3780902  24.2821032  57.0152356  59.8073040
  25.1937393  56.0068623  59.6276989  24.4986096  56.3379517  59.4784994
  15.5791252  67.2426718  65.2930383  16.2228708  67.6839882  65.6826541
  15.9047508  66.4380144  65.2060642  15.7223081  67.1891913  65.3375860
   8.9355557  58.3469416  63.5167861   8.7005741  57.5137068  63.4100129
   9.0741198  58.6274081  62.7029062   8.9211219  58.2652919  63.3810216
  11.2345644  50.5155146  66.4152168  10.6150676  49.9247794  66.2462183
  11.1329508  51.1066582  65.7816491  11.1283320  50.5159229  66.2957158
  16.2811832  60.2538693  60.6650245  16.6027673  60.7943900  60.0611553
  16.9283928  59.6835465  60.7972534  16.4237887  60.2497868  60.5957280
  18.3313540  52.2554688  60.7484631  19.0293705  52.4342816  61.2406095
  18.6465872  51.7325027  60.1255021  18.4808877  52.2048460  60.7286642
  10.9614777  54.0607428  68.6595737  10.8373474  54.6469873  69.2945556
  11.6133062  53.5667624  68.9608012  11.0388427  54.0746232  68.7981667
  18.5201475  58.6425133  60.7364423  18.9595111  58.0342234  61.1819196
  18.3706138  58.2632506  59.9649888  18.5622941  58.4963604  60.6883590
  15.9873118  57.2369145  67.9383248  16.6322121  56.7441588  67.6194197
  16.2274895  57.3793932  68.7649327  16.1183703  57.1846587  68.0132782
  18.5259210  60.0824051  67.5890141  18.8082453  59.2875457  67.3676897
  19.2545370  60.5604638  67.6095202  18.6748773  60.0358648  67.5593156
  16.5040404  47.6247085  64.8305906  16.1743734  48.0758228  64.1609605
  15.8285405  47.5463248  65.3778912  16.3550840  47.6798220  64.8129129
  22.1210812  56.9952314  57.6895192  22.0362107  57.8513281  57.8344761
  22.6095195  56.7196638  58.3577351  22.1799709  57.0809636  57.8097274
  23.7116811  43.6132608  63.0755517  23.3970252  44.3036086  63.5075939
  23.1943753  43.5577390  62.3741017  23.5881282  43.7067496  63.0352466
  23.0529245  53.6137109  59.1892927  22.5240717  53.8296742  59.8490233
  23.5754265  54.3073247  59.1093897  23.0517698  53.7480245  59.2748526
  28.5077298  59.1883413  64.5625972  27.6775001  59.3994057  64.7259388
  28.4586550  58.3620468  64.2868255  28.3784033  59.0973019  64.5463337
  14.9428853  57.5100325  57.9900395  14.3586068  58.0150357  58.3966259
  14.5398948  57.2842712  57.2496987  14.7968157  57.5508574  57.9405420
  10.4972882  63.2255086  64.7924067  10.0140460  63.9505576  64.7683650
  11.3096200  63.5231217  64.9034224  10.5463629  63.3757440  64.8051346
  16.5687036  62.0187267  67.3973881  16.0513977  61.6594682  66.7935189
  17.2661427  61.4949442  67.4079947  16.5952617  61.8884955  67.3104140
  20.2250628  62.4682081  73.3590054  20.3133973  62.2808222  74.2068265
  20.6540340  61.8219511  72.9594901  20.3012730  62.3445089  73.4261806
  14.7096358  45.6859373  60.3128854  15.4642326  46.0537690  60.0745904
  14.5323892  46.0598928  61.0808033  14.7950836  45.7957561  60.3913742
  13.3517079  63.7411262  64.9444347  14.0537658  63.2263251  65.0017103
  13.2714562  64.0685414  65.7491222  13.4440839  63.7125489  65.0717139
  28.0031256  51.8353814  68.3576393  27.1659677  51.9056001  68.5923987
  27.9719487  51.8378309  67.4850695  27.8749539  51.8464041  68.2635941
  14.3995985  53.9786849  74.0724762  14.5716489  53.8692744  74.9210043
  14.9365343  54.6241255  73.8355954  14.5040989  54.0578851  74.1629858
  13.0653422  48.0929692  57.0106967  12.8828995  48.3101573  56.1847959
  13.9279035  48.2068705  57.0665581  13.1658012  48.1419590  56.8961454
  12.6767854  59.9317614  64.4529955  13.5156754  60.1640547  64.5003716
  12.7079623  59.0621926  64.3836990  12.8049572  59.8374561  64.4494599
  13.3020557  60.3518490  68.7543260  13.8418782  60.2089621  69.4246632
  12.6190504  60.7515240  69.1227286  13.2812711  60.3898160  68.9077682
  18.7453141  45.0956103  60.0455990  19.4739302  44.9172058  59.5994147
  18.8348034  45.9374183  60.2563169  18.8659804  45.1939981  60.0109508
  22.7261442  56.0309490  63.9488284  23.4818957  56.4641005  63.9877193
  22.8323767  55.3814260  64.5222921  22.8531613  55.9986974  64.0386310
  25.7641613  59.8582767  64.6990687  25.3276845  59.8619510  65.4549659
  25.4304529  60.5388266  64.2670265  25.6504233  59.9595223  64.7471520
  25.6839096  46.8996595  66.9420115  26.3265005  46.9694700  67.5282031
  25.9362117  46.2325818  66.4399657  25.8161228  46.8122944  66.9547395
  12.6115449  51.3703865  55.5229440  11.8973626  51.0842044  55.9351872
  13.0959418  51.7100491  56.1635827  12.5774813  51.3785514  55.6785075
  13.4556309  50.1097159  71.5544689  12.7628105  49.6394138  71.8005421
  14.0716636  49.8835463  72.1286397  13.4440839  50.0064290  71.6753842
  20.4941080  63.8101202  69.6700293  19.6956326  63.5700702  69.9274162
  20.9427092  63.8615595  70.4167341  20.4415691  63.7823593  69.8185218
  28.8985959  56.5763687  63.5910325  29.5602394  56.0154356  63.4906233
  28.2577371  56.0815718  63.9163016  28.9014827  56.4200096  63.6242665
  19.7862767  59.8733819  55.8991248  20.2013916  59.5418843  55.2075744
  18.9554697  59.6402721  55.7711385  19.7250776  59.7905075  55.7782095
   9.1151116  57.3577560  66.1889426   8.9326689  57.3324446  65.3361718
   9.8500785  57.8276498  66.2278335   9.1965180  57.4238922  66.0687344
  25.1850790  57.5929070  63.3322313  25.4206379  57.7374269  62.5049164
  25.3340354  58.3571478  63.7253827  25.2416593  57.7268124  63.2685917
  12.1796868  54.0762563  72.6971535  12.9036840  54.0615593  73.1836429
  12.2813004  54.7857918  72.1993503  12.3015077  54.1787266  72.6950321
  27.0141247  56.4330736  61.1691917  27.3449464  56.9658376  60.5632012
  27.5874335  56.4869623  61.8253868  27.1474926  56.5200305  61.1769699
  22.2273136  54.2795638  61.8515497  22.3219990  55.0184932  62.3055123
  21.6031980  53.8513114  62.2850062  22.1482166  54.3256959  61.9823645
  20.4825610  57.4581851  72.5005778  21.0564472  56.8209095  72.6554342
  20.4040414  57.4585933  71.6315436  20.5558845  57.3646962  72.3952189
   9.0822026  54.2371060  66.3388492   9.6595529  54.1007511  66.9780738
   8.3836088  53.7806845  66.5934077   9.0643048  54.1493327  66.4710782
  22.4796157  56.1244378  55.0852449  22.3976320  56.1946565  55.9507436
  23.1175878  56.6874122  54.8936190  22.5615995  56.2183349  55.1842399
  15.8389328  55.8905116  64.5526976  15.5808573  55.0576851  64.5258275
  15.8937811  56.1162729  63.7119476  15.8089106  55.8002887  64.4247112
  20.9190379  47.9933567  64.6531068  20.2146705  47.5042752  64.8114988
  20.9675353  48.0056041  63.7819513  20.8220430  47.9223215  64.5470408
  14.8124041  53.4442879  65.0391870  14.2373632  53.6035047  65.6755831
  14.4359717  52.8078288  64.5760321  14.6726853  53.3740692  65.0646429
  18.4797329  51.9166228  69.8984249  18.0911762  51.4920446  69.2436440
  17.8152028  52.1648378  70.4061276  18.3244257  51.8904949  69.8772117
  28.1220598  51.6741233  62.6732079  27.8657163  50.8621174  62.4829962
  28.9649912  51.6818800  62.4462266  28.2086624  51.5553230  62.6116896
   4.5580860  53.0882953  63.0536311   4.6441111  52.7114822  63.8349841
   5.1856657  52.7143399  62.5756269   4.6637410  52.9768436  63.0981788
  22.3023691  45.6140857  67.4108233  22.6834203  44.9319028  67.7976107
  21.4986975  45.3250459  67.2283898  22.2400153  45.4707905  67.4412289
  19.5836268  56.1464832  58.0961056  20.3976906  56.4379725  57.9843827
  19.5195409  55.4924695  57.5219349  19.6939007  56.0930027  57.9949893
  25.8045758  58.8290829  72.5090631  25.5684395  57.9978893  72.3902692
  26.4488987  58.7776436  73.0945476  25.8640428  58.6988517  72.5776525
  15.4544176  59.6186350  63.2233368  16.0918123  59.3798097  63.7685161
  15.8799247  59.8223509  62.4886529  15.6120342  59.6137360  63.1950525
  16.0946991  54.8388640  57.5608257  16.4792144  54.6196346  58.3124802
  15.8458611  55.6651585  57.6909334  16.1149063  54.9286786  57.6909334
  16.2615531  48.1195055  77.2770842  15.9468972  48.8894618  77.0140404
  15.9405464  47.5565311  76.6923068  16.1674450  48.1505324  77.1512191
  26.8282178  58.6135277  68.5718926  26.5227995  59.3463334  68.9332242
  26.1088394  58.2073207  68.2911712  26.6769521  58.6617010  68.5832063
  17.8365648  60.0958773  64.9027154  17.9104656  59.9333944  65.7569004
  18.6535154  60.2848962  64.6587636  17.9682006  60.0995515  64.9925180
  32.5283970  55.2528278  67.8987270  32.4608471  55.2724237  67.0289857
  32.5139633  56.0958605  68.1242941  32.5162727  55.3802013  67.8039747
  11.5971404  60.4416635  61.9321598  10.7709522  60.6878373  61.8055876
  11.6583396  60.3628716  62.7983656  11.4845571  60.4661584  62.0410542
  13.8147428  46.5085576  62.8917038  12.9469854  46.5808176  62.9574647
  14.1022633  47.3107655  63.0805013  13.7287176  46.6379723  62.9291804
  22.9380317  46.6563436  71.2228360  23.6833909  46.4673246  70.8091785
  22.5217622  47.1821674  70.6642216  22.9865291  46.7065581  71.0792933
  16.3770233  63.0593516  59.6340628  16.6668532  62.6682497  58.9099854
  17.1073714  63.2410221  60.0745903  16.5277118  63.0287329  59.5923435
  30.3142588  54.0272664  66.1733865  30.8650509  53.3940733  66.4130957
  30.2986703  54.5588057  66.8649369  30.3927784  54.0121612  66.3112723
  16.9664979  57.8611262  70.7193758  16.4676672  58.5727029  70.7978647
  17.7765203  58.1811928  70.6811920  17.0121085  58.0138110  70.7250327
  14.3176149  65.0360898  62.7000777  14.0976444  64.7458253  63.4927444
  14.0970671  64.3775853  62.1718690  14.2523743  64.8960606  62.7389686
  13.2293096  57.1234215  64.9656479  12.9406345  56.4971686  65.5002206
  14.0976444  57.0654502  65.0321159  13.3153348  57.0221759  65.0547434
  24.0170994  52.2668998  65.2838461  23.6735760  51.5459333  65.6345711
  24.1164037  52.0582849  64.4416819  23.9813037  52.1293201  65.2110141
  16.4844105  66.4090288  61.4831470  17.1368163  65.8766730  61.7122496
  15.7869713  66.0558940  61.8699344  16.4774823  66.2779811  61.5743637
  13.4325370  58.7629466  60.8898844  14.1871338  59.1442505  61.1034307
  12.8395982  59.2140609  61.3445541  13.4562083  58.8858293  60.9881722
  24.4784023  58.7294702  60.8262449  25.0442056  59.3887912  60.7420992
  23.8311927  59.0744400  61.2978851  24.4662780  58.8776643  60.8835205
  15.8932037  50.7192306  76.0156056  15.0831812  51.0250086  75.9045899
  16.3706723  51.4397888  76.1308640  15.8435515  50.8706907  76.0163127
  14.7523596  59.9338027  66.2638959  14.2304350  60.0738319  66.9490824
  15.1397617  59.1748691  66.4541077  14.7327297  59.8423551  66.3940036
  11.7414780  49.9843836  60.3333914  11.4539576  49.6145106  59.5965861
  12.4285248  50.4538691  60.0717619  11.8003678  49.9990805  60.1848990
  20.9490601  61.6733486  60.2499528  20.7077277  60.9401347  59.8426593
  21.1291934  62.2220343  59.5965862  20.9398225  61.6455877  60.0929751
  16.1789922  56.9642046  61.6620450  15.9832704  57.5716780  61.0680753
  16.4024267  56.2709990  61.1812124  16.1824563  56.9519571  61.5036531
  14.5768452  53.8496784  61.7801319  15.2991104  54.0137942  61.3205125
  14.0976445  54.5706449  61.6740659  14.6132183  53.9795013  61.6966933
  22.5361959  50.1860583  67.1598004  21.6973060  50.2121862  66.9236267
  22.6066327  50.8331318  67.7403350  22.4230353  50.2856708  67.2107121
  20.9831238  47.0845960  61.8925620  21.6857591  46.8853708  61.4145578
  20.7175426  46.3121902  62.1994463  21.0477870  46.9408926  61.8671061
  26.4119483  55.3928569  64.4459246  26.3253458  55.5483995  65.2994024
  25.9569963  56.0366645  64.0718651  26.3322740  55.5104325  64.5166352
   9.3142975  50.7625048  61.1819195   9.4159111  51.5651210  61.5100171
  10.1098862  50.5612384  60.8842276   9.4470880  50.8510947  61.1854551
  15.7459794  48.3481245  70.9456500  15.5542991  48.3636379  71.7955924
  16.5958390  48.5444919  70.9223155  15.8435516  48.3795596  71.0679795
  10.1306707  50.8772226  68.9240317   9.9892199  50.0256167  69.0484825
  10.4147270  50.9200887  68.1002523  10.1514553  50.7571976  68.8207941
  20.2845299  52.7139317  63.0684805  20.0380014  52.6335067  63.9021594
  20.6130422  51.9292784  62.8747333  20.2966543  52.5865582  63.1632328
  22.5171433  55.7219051  73.1093968  22.5119472  54.8498868  73.1136394
  23.2232427  55.9207220  72.6363424  22.6216437  55.6222925  73.0401003
  16.2442327  55.4496035  72.4807788  16.3885702  56.0297243  71.8450898
  16.5917975  55.8272332  73.1857643  16.3169788  55.5916739  72.4906783
  18.4162244  54.6486203  70.2632920  17.6685558  54.8417218  69.8581198
  18.5703769  53.8231423  70.0257041  18.3284672  54.5551315  70.1678326
  15.3170082  63.6398807  69.3468815  15.4659645  63.0801723  68.6942219
  16.0970084  63.7190809  69.7301334  15.4544175  63.5684372  69.3065764
  25.6746721  58.7800930  57.6188086  25.2953530  57.9938068  57.6117375
  25.0112966  59.3287787  57.4759730  25.5205196  58.7445754  57.5968882
  17.8423382  63.8113450  70.6253306  17.7667053  63.1422260  71.1804094
  17.7713241  64.5131238  71.1393972  17.8203989  63.8158357  70.7830154
  18.6564021  48.5436754  71.1528323  19.1136635  49.2760729  71.2801116
  18.7320350  48.1203219  71.9115579  18.7354991  48.5893992  71.2829400
  10.8997012  48.7902574  72.2417767  10.3639202  48.1782932  72.5578534
  10.9614777  49.3650710  72.8951434  10.8292645  48.7849502  72.3853194
  23.1291347  41.7226629  65.0222166  23.2474915  42.1803093  64.2889469
  22.9553523  40.9171891  64.7358384  23.1210518  41.6720402  64.8723100
  18.4993629  62.3314449  61.4576912  19.2643520  62.0624092  61.1359576
  18.3971719  61.8464459  62.1746975  18.5975125  62.2204013  61.5156739
  16.5346399  50.5338858  67.9970147  15.7442474  50.3530318  68.3187483
  16.9307022  49.7565811  67.9800442  16.4763275  50.3926319  68.0422696
  21.0212290  59.3626632  53.4376861  21.7885275  59.4226757  53.0282713
  20.5743599  58.7907074  52.9533180  21.0685717  59.2863208  53.3054571
  21.9190085  58.1681288  65.7229593  21.2435087  57.9366521  66.2242980
  21.9282461  57.5602471  65.0971698  21.8208590  58.0440214  65.7045746
  19.0484229  53.0099117  72.4793646  18.9843370  53.8709074  72.3513783
  19.1881417  52.6931110  71.6789198  19.0599699  53.0899284  72.3421859
  23.9206820  61.0246421  57.9539771  24.0026657  61.8313407  57.6301222
  24.4056562  61.0442380  58.6780545  24.0043978  61.1467083  58.0126670
  17.7303323  55.7031257  66.6209849  17.3065572  55.9035756  65.8848868
  17.5548178  54.8560105  66.7334149  17.6414204  55.6080038  66.5283539
  13.0185768  56.1983308  62.0537822  13.1750387  56.1330111  62.9093814
  13.3586361  56.9731861  61.8416501  13.0919003  56.3032506  62.1492416
  19.5564913  55.5741192  60.9231185  20.0980458  55.0711573  61.3869806
  19.8711472  55.5206386  60.1120670  19.6829310  55.4920613  60.8714997
  23.4282020  59.7843839  78.0358097  24.2416885  59.5128988  78.1963230
  23.2676986  59.4851379  77.2318293  23.5251969  59.6998765  77.9403503
  17.7251362  60.9658543  58.2071213  17.7944183  60.1073082  58.3464213
  18.5039818  61.1830424  57.8790238  17.8504212  60.8711407  58.1788370
  20.7054182  50.4677496  70.9753485  20.9196152  49.8288410  70.4216839
  20.0888081  50.9123320  70.5461347  20.6459511  50.4387640  70.8303917
  22.1158850  63.3896244  62.4207706  21.7238642  63.0862960  61.7030573
  22.2711922  64.2265334  62.2312660  22.0812440  63.4680081  62.2864203
   9.5920030  53.3818259  62.3698589   9.9718994  53.8002803  61.7058856
   9.0175394  53.9631714  62.6767432   9.5631354  53.5296117  62.3175330
  22.8693270  52.0766561  71.9136793  22.0569952  51.7692452  71.9949965
  23.3283205  51.5965561  72.4779505  22.8173655  51.9603054  72.0091387
  22.2798525  59.9546233  62.3613737  21.9213179  60.1260876  63.1377769
  21.7937235  60.4159439  61.8041735  22.1557222  60.0485204  62.3939006
  20.0968911  43.5777432  65.9640828  19.2262469  43.5516153  65.9174138
  20.3509252  43.4054624  65.1466674  20.0062471  43.5487576  65.8360965
  17.0686890  55.6345399  54.9013971  17.3579415  56.4110281  55.1757546
  17.1558689  55.1234130  55.6028471  17.1241146  55.6737317  55.0456469
  19.9646778  53.4826633  76.6965495  20.4346409  54.1068749  77.0833369
  20.0108658  52.8143608  77.2558710  20.0414653  53.4761313  76.8365566
  17.1218051  45.5883660  67.4214299  16.6056540  44.8963852  67.5465878
  16.5611980  46.2554437  67.3676897  16.9624564  45.5846918  67.4320365
  19.1910285  46.1276620  69.2507151  18.8042038  46.1525652  70.0320681
  18.7043222  45.5618299  68.7981668  19.0622794  46.0472371  69.2995055
  23.4403264  60.8450129  73.3080938  24.0782985  60.3510325  72.9743394
  22.7977356  60.7727530  72.7233165  23.4397491  60.7609138  73.1723293
  25.1660264  52.6939275  67.8746853  24.7387872  52.6065624  67.1194953
  24.5286317  52.8017051  68.4601697  25.0089871  52.6971935  67.8492295
  18.8567426  43.0143606  71.5417411  19.4860544  43.5503906  71.2638482
  19.0253289  42.9220965  72.3930977  18.9745221  43.0804968  71.6265939
  18.6581341  47.8014800  73.8143823  19.4854771  47.5299949  73.8702437
  18.6789187  48.5975642  74.1707641  18.7834191  47.8794555  73.8759006
  23.4957521  61.5369938  69.9486295  24.2849899  61.1859002  70.0688376
  23.6701118  62.3506326  69.6862928  23.6377802  61.6055795  69.9274163
  13.2350831  54.9478663  67.0014083  12.3938838  54.8482537  67.2092977
  13.4440839  55.7174144  67.3528404  13.1415524  55.0470707  67.0841398
  10.7126398  52.5698200  64.8298834  10.3183096  52.6441212  64.0548944
  10.1566515  52.9556147  65.3807196  10.5729210  52.6379975  64.7966494
  22.3491345  45.5479494  64.5102713  22.5540938  45.4801802  65.3559710
  22.0217769  46.3538315  64.4423890  22.3306593  45.6565435  64.6262368
  17.0467496  52.8760062  66.2511681  16.7430633  52.3216051  66.8522089
  16.3446917  53.0552272  65.7639715  16.8983706  52.8204845  66.2681387
  16.1033593  50.1860582  60.8156383  16.3793327  49.4679495  60.4033950
  16.7032262  50.7845502  60.6077489  16.2326858  50.1680953  60.7237144
  25.6025033  46.1011258  63.9905478  24.9899346  46.5881661  64.3759210
  25.6989207  45.4254749  64.5343130  25.5262930  46.0729567  64.1284337
  19.6044114  47.8574100  59.0902978  20.0587860  48.0284660  59.8150822
  20.0784159  47.2442210  58.6900753  19.7412434  47.7924985  59.1376739
  13.1259639  57.3422426  68.4205716  12.5347572  57.9831924  68.3908731
  13.8880663  57.7660043  68.3937016  13.1507900  57.4998264  68.4120863
  13.5220262  48.5024423  69.0873734  13.9821743  48.5763353  69.8248858
  13.5676368  49.3005677  68.7373555  13.5970817  48.6318570  69.1446490
  15.1703611  49.1691118  73.6545761  14.7789177  48.5224465  74.0901539
  15.3389474  49.7602553  74.2740016  15.1374522  49.1605386  73.8108467
  29.2450061  57.1728195  69.4182995  29.3033184  57.6214844  70.1642971
  28.6116528  57.5827008  68.9813075  29.1601356  57.3001930  69.4635543
  22.8849155  62.7931737  65.8537741  22.6868844  63.2822552  65.1593952
  22.2636866  62.9972979  66.4321874  22.7636720  62.8948275  65.8360964
  16.9457134  54.5616634  60.1947985  17.6899178  54.9490910  60.4330935
  17.0917830  53.7174059  60.3588473  17.0767719  54.4947107  60.2541955
  18.8636709  46.3566893  65.2279846  18.0172754  46.5289701  65.1021196
  18.8607841  45.5516237  65.5645675  18.7383859  46.2627922  65.2590973
  19.9335009  50.1342107  66.0941904  19.4594964  49.6083869  66.6047215
  20.3053145  49.5871580  65.5256766  19.9184898  49.9758104  66.0857052
  10.3108040  52.1313614  71.4625450  11.1733653  52.0309323  71.3762780
   9.9799823  51.5508323  70.9011022  10.3893236  52.0305241  71.3670856
  26.1971740  55.1944483  67.5048685  25.9569963  54.3550898  67.5091111
  26.6763747  55.2744650  68.2289458  26.2323924  55.0825883  67.6123487
  21.8618509  51.0278662  59.1567658  21.3341528  51.1107406  58.4673367
  22.3214217  51.7696533  59.1532303  21.8520360  51.1499324  59.0542353
  28.1976927  51.9745940  65.4577944  27.9586697  51.9341774  64.6198729
  28.3610828  52.8217092  65.5843665  28.1867230  52.0938025  65.3531426
  24.8022957  56.3595889  71.3882989  25.5257156  55.9068416  71.2094009
  24.5372919  56.6400555  70.6055317  24.8704230  56.3346858  71.2461704
  13.6709826  50.9556063  68.1235868  13.0462896  50.9674455  67.5161821
  13.3355420  51.4316238  68.7727108  13.5295317  51.0274580  68.1292437
  13.8551574  49.2981181  54.1808553  13.5064379  49.9500907  54.6440103
  13.3748020  49.2838295  53.4532424  13.7321818  49.3924235  54.1419645
  21.4155592  59.5982225  58.2877315  22.1389790  60.0640338  58.1441888
  20.9756183  59.6655835  57.5374912  21.4571284  59.6766062  58.1562097
  20.5841747  56.4579768  69.5378004  19.9698740  55.9137818  69.8326639
  21.1009032  55.9444004  69.0583820  20.5697409  56.3016177  69.5102233
  19.8238044  57.5284038  67.2722303  19.3965652  56.9033756  66.8387738
  19.8162988  57.2458960  68.0981310  19.7597185  57.3936818  67.3302130
  12.9400571  52.5649211  70.3410737  13.0994058  51.8092535  70.7462459
  12.7593464  53.1140150  70.9951474  12.9365930  52.5343025  70.4973443
  20.8820874  44.7310446  70.8961526  20.3861435  44.9274121  70.2053093
  21.6389936  45.1303115  70.7250328  20.9207699  44.8188180  70.7681663
  18.1523753  48.4052792  67.4864837  18.1766241  47.8712905  66.7977617
  18.4035227  47.8970101  68.1490427  18.1933672  48.2513696  67.4829481
  14.4325076  47.1323611  66.8670581  14.4723447  47.6332817  67.5805289
  13.6074740  47.2234004  66.5976504  14.3164602  47.2205427  66.9321119
  15.8539439  53.6484120  69.1644480  15.0231369  53.8157938  68.9579728
  15.7990956  53.2720071  69.9493365  15.7228854  53.6173852  69.2493008
  13.6623222  47.1393013  74.8000891  14.2875926  46.5955146  75.0730323
  13.2073702  46.6587931  74.2308681  13.6871483  46.9882495  74.7562485
  14.2275483  51.9239712  59.6934598  14.3678444  52.4212176  60.3963239
  14.7258016  51.2226006  59.8348811  14.3216564  51.8941691  59.8186177
  14.2575705  52.7906823  57.0227175  14.8920785  53.3867248  56.9576636
  14.3401316  52.4910281  57.8373045  14.3632256  52.8347731  57.1330261
  27.2358271  55.3222300  69.8913539  27.8276111  55.9619551  69.9231737
  27.6717266  54.6245337  70.1805606  27.3876702  55.3140651  69.9394371
  15.8354688  48.7220798  56.9972617  16.1570529  48.2423881  56.3431879
  16.0981632  49.5320444  56.8063428  15.9220714  48.7710696  56.8728109
  19.0651661  59.7439673  70.5171433  18.5576752  60.2975519  70.9612063
  18.7678307  59.8047963  69.6990207  18.9456546  59.8345984  70.4619889
  21.2313843  48.1092992  69.3596096  21.6568915  47.6565519  68.7479622
  20.6170836  47.5553063  69.6360883  21.2042489  47.9606968  69.3101121
  10.7628693  54.9874664  60.2916721  11.2720923  55.5839171  60.6728026
  11.2362965  54.7200637  59.6093140  10.9072069  55.0360479  60.2471243
  21.6759441  63.6602930  58.4475376  20.9588751  63.4863793  57.9822614
  22.3266179  63.4255503  57.9150862  21.6661292  63.5998723  58.3004594
  19.6708066  44.5808092  62.7686673  19.0276384  44.4305738  63.3371811
  19.3307473  44.3350437  62.0035777  19.5253143  44.5220215  62.7389688
  24.2607412  52.5367519  62.1916681  23.5898602  53.0797221  62.0629747
  24.9547163  53.0062374  61.9498376  24.2636280  52.6865790  62.1372209
  18.3094146  64.6764231  67.4228440  18.0859801  63.9183060  67.7912466
  17.8203989  64.7062252  66.7008879  18.2037595  64.5686455  67.3705181
  24.4235540  48.9923403  65.1007055  24.7763150  48.5653125  65.7752853
  23.5650341  48.9074246  65.2308131  24.3484985  48.9168143  65.2202065
  13.1219225  51.6230922  63.1589901  12.4031214  52.0395055  63.4262765
  13.4931587  52.1885161  62.6081539  13.0711157  51.7680204  63.1172708
  22.4218806  52.2558771  69.0491897  22.4016733  52.0742066  69.9026676
  22.4698006  53.1270790  69.0251480  22.4253447  52.3575309  69.1715192
  20.3665136  58.8445963  74.9740373  20.3260990  58.1995640  74.3885529
  21.1788454  58.7882580  75.2865785  20.4808289  58.7404930  74.9337323
  16.9572603  64.8964689  64.8765524  16.5433002  64.2338819  64.4869366
  17.6419977  65.0442548  64.3561218  16.9970975  64.8205347  64.7422021
  20.3237897  64.0554774  65.6289141  19.9254180  64.1657045  64.8609961
  19.7089117  64.2636841  66.2115701  20.1736787  64.1028342  65.6020440
  18.8965799  50.6628922  58.4963281  18.3030639  50.9845919  57.9447848
  18.9341077  49.8170018  58.2884387  18.8140188  50.5853250  58.3846052
  25.8559600  44.1141814  66.0291367  25.3490465  43.4070954  65.9612545
  26.6527034  43.7835003  66.1592444  25.8986839  43.9614966  66.0390362
  21.7723616  50.6208427  61.9265031  21.5437309  50.6441128  61.0843389
  22.0321692  49.7965894  62.0460041  21.7769804  50.5024507  61.8190228
  16.0542844  52.4742900  71.5290131  15.5421747  51.8664083  71.8875162
  15.8822340  53.1899492  71.9964107  15.9532481  52.4906199  71.6506355
  14.8268378  49.1584973  63.2219226  15.3025745  49.5202053  62.5869408
  14.3256978  49.8141440  63.5019369  14.8233737  49.3079162  63.1695967
  28.0579740  58.6306741  59.0132231  28.4413346  59.3798097  59.2430328
  27.2623853  58.8772561  58.7544221  27.9973522  58.7776435  59.0089805
  19.9311915  50.3967144  73.9692387  20.4883345  50.1680954  73.3370852
  19.6072980  51.1572810  73.6927599  19.9658325  50.4750981  73.8348884
  17.6495032  53.4834798  74.9344394  18.4006359  53.7986474  75.2483948
  17.8417608  53.2813969  74.1078315  17.7886446  53.5002179  74.8587789
  16.8695032  51.3026173  56.5892610  17.2493996  51.3205802  55.8043725
  16.1287628  51.7480162  56.4683458  16.8163869  51.3707947  56.4556179
  24.4980322  49.6108364  62.1768189  24.4974548  49.4557020  63.0352465
  24.2936502  50.4571351  62.1209575  24.4680100  49.7128985  62.2956129
   6.5597593  53.0348148  66.5927006   6.3819354  52.5824757  67.3181921
   6.2716615  53.8374310  66.7765483   6.4910546  53.0870706  66.7270509
  22.2221174  54.2905866  65.8304396  22.7174839  53.5728861  65.7908416
  21.4120950  53.9876663  65.7158883  22.1765067  54.1403512  65.8078122
  17.6679786  58.1403679  57.9801400  16.8591108  57.8170352  57.9334710
  18.1754694  57.4336901  57.9129649  17.6229452  57.9884995  57.9631695
   8.2970063  55.5675872  63.7048765   7.4315582  55.5561563  63.5931536
   8.3968879  55.3806095  64.5519904   8.1844230  55.5381933  63.8137709
  24.2872993  57.0409553  68.5181525  24.7128065  56.5183975  67.9651950
  23.9229913  57.6390391  67.9970148  24.2959596  57.0519780  68.3590534
  13.9227073  65.3373771  67.2778870  14.2373632  66.1510159  67.2856652
  14.3320486  64.9523989  67.9461029  14.0295171  65.4002473  67.3782962
  17.7921087  45.5271288  71.8040777  17.9248993  44.7302281  72.1321753
  18.1766240  46.0537691  72.3839053  17.8677416  45.4871205  71.9384280
  21.5125539  60.5461752  71.6110375  20.9646485  59.9219635  71.3430440
  21.9738567  60.7356024  70.8954454  21.4992748  60.4820802  71.4660806
  20.8653443  42.4501614  68.4021870  20.0599406  42.3399344  68.7189709
  20.7360178  42.5514070  67.5451736  20.7273575  42.4485284  68.3229911
  24.3219403  48.6147106  68.9961567  23.7382392  49.1156313  68.5839135
  24.6423697  48.1076662  68.3625890  24.2832578  48.6138941  68.8420074
  16.8614202  47.5287701  59.2720242  17.6829897  47.6986014  59.0301937
  16.3983853  47.6834962  58.5486540  16.9145364  47.5769434  59.1291886
  15.4509534  45.5230463  70.0518671  15.9953947  45.1821590  70.6423012
  15.5046470  46.3815925  70.1939955  15.5398654  45.5985722  70.1600544
  11.2640093  59.2846879  66.9257479  11.8684950  59.2442713  66.2971299
  11.0567405  60.1318031  66.9561534  11.3228990  59.4034882  66.8373595
  21.0783865  61.5512824  68.1419716  21.8982239  61.4075790  68.4036011
  20.7977943  62.1759023  68.6836154  21.1580608  61.6223176  68.2607655
  37.5497515  69.2077676  61.1062592  37.5191520  70.0622313  61.2780862
  38.1478864  68.9072969  61.6648736  37.6334673  69.2894173  61.2137395
  30.7497200  68.2953327  65.8615523  29.8935096  68.4561825  65.9124640
  30.7964854  67.4245391  65.8820584  30.6296312  68.1904129  65.8721589
  33.5949021  70.3545371  68.5047174  34.1404981  71.0330458  68.5641144
  33.5365898  70.2132832  67.6448756  33.6664936  70.4337373  68.3859235
  35.3714090  71.7829978  59.3780902  35.2553616  72.5337664  59.8073040
  36.1669977  71.5253931  59.6276989  35.4718679  71.8564825  59.4784994
  19.9088140  73.8654724  63.5167861  19.6738325  73.0322376  63.4100129
  20.0473781  74.1459389  62.7029062  19.8943803  73.7838227  63.3810216
  22.2078228  66.0340454  66.4152168  21.5883260  65.4433101  66.2462183
  22.1062091  66.6251889  65.7816491  22.1015903  66.0344537  66.2957158
  27.2544415  75.7724001  60.6650245  27.5760257  76.3129208  60.0611553
  27.9016512  75.2020772  60.7972534  27.3970471  75.7683176  60.5957280
  29.3046124  67.7739996  60.7484631  30.0026288  67.9528124  61.2406095
  29.6198456  67.2510335  60.1255021  29.4541461  67.7233768  60.7286642
  21.9347361  69.5792736  68.6595737  21.8106058  70.1655181  69.2945556
  22.5865645  69.0852932  68.9608012  22.0121010  69.5931540  68.7981667
  29.4934059  74.1610441  60.7364423  29.9327694  73.5527542  61.1819196
  29.3438722  73.7817814  59.9649888  29.5355525  74.0148912  60.6883590
  26.9605702  72.7554453  67.9383248  27.6054704  72.2626896  67.6194197
  27.2007479  72.8979239  68.7649327  27.0916287  72.7031895  68.0132782
  29.4991793  75.6009359  67.5890141  29.7815036  74.8060764  67.3676897
  30.2277954  76.0789946  67.6095202  29.6481357  75.5543956  67.5593156
  27.4772987  63.1432393  64.8305906  27.1476317  63.5943536  64.1609605
  26.8017989  63.0648556  65.3778912  27.3283423  63.1983528  64.8129129
  33.0943395  72.5137622  57.6895192  33.0094691  73.3698589  57.8344761
  33.5827779  72.2381946  58.3577351  33.1532293  72.5994944  57.8097274
  34.6849395  59.1317916  63.0755517  34.3702836  59.8221394  63.5075939
  34.1676337  59.0762698  62.3741017  34.5613865  59.2252804  63.0352466
  34.0261829  69.1322417  59.1892927  33.4973300  69.3482050  59.8490233
  34.5486849  69.8258555  59.1093897  34.0250282  69.2665553  59.2748526
  39.4809882  74.7068721  64.5625972  38.6507585  74.9179365  64.7259388
  39.4319134  73.8805776  64.2868255  39.3516617  74.6158327  64.5463337
  25.9161436  73.0285633  57.9900395  25.3318652  73.5335665  58.3966259
  25.5131532  72.8028020  57.2496987  25.7700740  73.0693882  57.9405420
  30.3738651  69.2751285  56.4669316  30.6134655  69.4829269  55.6544659
  30.6954492  68.4708794  56.5758260  30.4575809  69.1865387  56.3629869
  25.6828941  61.2044681  60.3128854  26.4374909  61.5722998  60.0745904
  25.5056476  61.5784235  61.0808033  25.7683420  61.3142869  60.3913742
  38.9763840  67.3539122  68.3576393  38.1392261  67.4241309  68.5923987
  38.9452071  67.3563616  67.4850695  38.8482122  67.3649349  68.2635941
  25.3728569  69.4972157  74.0724762  25.5449073  69.3878052  74.9210043
  25.9097926  70.1426563  73.8355954  25.4773573  69.5764159  74.1629858
  24.0386006  63.6115000  57.0106967  23.8561579  63.8286881  56.1847959
  24.9011619  63.7254013  57.0665581  24.1390595  63.6604898  56.8961454
  23.6500438  75.4502922  64.4529955  24.4889337  75.6825855  64.5003716
  23.6812207  74.5807234  64.3836990  23.7782155  75.3559869  64.4494599
  29.7185725  60.6141411  60.0455990  30.4471885  60.4357366  59.5994147
  29.8080618  61.4559491  60.2563169  29.8392387  60.7125289  60.0109508
  33.6994026  71.5494798  63.9488284  34.4551541  71.9826312  63.9877193
  33.8056350  70.8999568  64.5222921  33.8264196  71.5172282  64.0386310
  36.7374197  75.3768075  64.6990687  36.3009429  75.3804818  65.4549659
  36.4037112  76.0573574  64.2670265  36.6236817  75.4780531  64.7471520
  36.6571680  62.4181903  66.9420115  37.2997588  62.4880008  67.5282031
  36.9094700  61.7511126  66.4399657  36.7893812  62.3308252  66.9547395
  23.5848033  66.8889173  55.5229440  22.8706210  66.6027352  55.9351872
  24.0692002  67.2285799  56.1635827  23.5507396  66.8970822  55.6785075
  24.4288892  65.6282467  71.5544689  23.7360689  65.1579446  71.8005421
  25.0449220  65.4020771  72.1286397  24.4173422  65.5249598  71.6753842
  39.8718543  72.0948995  63.5910325  40.5334977  71.5339664  63.4906233
  39.2309955  71.6001026  63.9163016  39.8747411  71.9385404  63.6242665
  30.7595351  75.3919127  55.8991248  31.1746499  75.0604151  55.2075744
  29.9287280  75.1588029  55.7711385  30.6983359  75.3090383  55.7782095
  20.0883700  72.8762868  66.1889426  19.9059273  72.8509754  65.3361718
  20.8233368  73.3461806  66.2278335  20.1697763  72.9424230  66.0687344
  36.1583374  73.1114378  63.3322313  36.3938963  73.2559577  62.5049164
  36.3072937  73.8756786  63.7253827  36.2149177  73.2453432  63.2685917
  23.1529451  69.5947871  72.6971535  23.8769424  69.5800901  73.1836429
  23.2545588  70.3043226  72.1993503  23.2747660  69.6972574  72.6950321
  33.2005720  69.7980946  61.8515497  33.2952574  70.5370240  62.3055123
  32.5764563  69.3698422  62.2850062  33.1214750  69.8442267  61.9823645
  20.0554610  69.7556368  66.3388492  20.6328112  69.6192819  66.9780738
  19.3568672  69.2992153  66.5934077  20.0375631  69.6678635  66.4710782
  33.4528741  71.6429686  55.0852449  33.3708903  71.7131873  55.9507436
  34.0908461  72.2059430  54.8936190  33.5348578  71.7368657  55.1842399
  26.8121912  71.4090424  64.5526976  26.5541156  70.5762159  64.5258275
  26.8670395  71.6348037  63.7119476  26.7821690  71.3188195  64.4247112
  31.8922962  63.5118875  64.6531068  31.1879289  63.0228060  64.8114988
  31.9407937  63.5241349  63.7819513  31.7953014  63.4408523  64.5470408
  25.7856624  68.9628187  65.0391870  25.2106215  69.1220355  65.6755831
  25.4092300  68.3263596  64.5760321  25.6459437  68.8925999  65.0646429
  29.4529913  67.4351536  69.8984249  29.0644346  67.0105754  69.2436440
  28.7884611  67.6833685  70.4061276  29.2976841  67.4090257  69.8772117
  39.0953182  67.1926540  62.6732079  38.8389747  66.3806482  62.4829962
  39.9382496  67.2004108  62.4462266  39.1819207  67.0738538  62.6116896
  15.5313443  68.6068261  63.0536311  15.6173695  68.2300130  63.8349841
  16.1589241  68.2328707  62.5756269  15.6369994  68.4953743  63.0981788
  33.2756274  61.1326165  67.4108233  33.6566786  60.4504336  67.7976107
  32.4719559  60.8435767  67.2283898  33.2132736  60.9893213  67.4412289
  30.5568851  71.6650140  58.0961056  31.3709490  71.9565033  57.9843827
  30.4927992  71.0110003  57.5219349  30.6671590  71.6115335  57.9949893
  26.4276759  75.1371658  63.2233368  27.0650706  74.8983405  63.7685161
  26.8531831  75.3408817  62.4886529  26.5852926  75.1322668  63.1950525
  27.0679574  70.3573948  57.5608257  27.4524727  70.1381654  58.3124802
  26.8191195  71.1836893  57.6909334  27.0881647  70.4472094  57.6909334
  27.2348115  63.6380363  77.2770842  26.9201556  64.4079926  77.0140404
  26.9138047  63.0750619  76.6923068  27.1407034  63.6690631  77.1512191
  28.8098231  75.6144080  64.9027154  28.8837240  75.4519252  65.7569004
  29.6267738  75.8034270  64.6587636  28.9414590  75.6180823  64.9925180
  24.7880012  62.0270884  62.8917038  23.9202437  62.0993484  62.9574647
  25.0755216  62.8292963  63.0805013  24.7019760  62.1565031  62.9291804
  33.9112901  62.1748744  71.2228360  34.6566493  61.9858554  70.8091785
  33.4950205  62.7006982  70.6642216  33.9597875  62.2250889  71.0792933
  41.2875171  69.5457972  66.1733865  41.8383093  68.9126041  66.4130957
  41.2719287  70.0773365  66.8649369  41.3660368  69.5306920  66.3112723
  27.9397562  73.3796569  70.7193758  27.4409256  74.0912337  70.7978647
  28.7497786  73.6997236  70.6811920  27.9853669  73.5323418  70.7250327
  24.2025680  72.6419522  64.9656479  23.9138928  72.0156994  65.5002206
  25.0709028  72.5839810  65.0321159  24.2885932  72.5407067  65.0547434
  34.9903578  67.7854306  65.2838461  34.6468343  67.0644641  65.6345711
  35.0896620  67.5768157  64.4416819  34.9545620  67.6478509  65.2110141
  24.4057953  74.2814774  60.8898844  25.1603921  74.6627813  61.1034307
  23.8128566  74.7325917  61.3445541  24.4294667  74.4043601  60.9881722
  35.4516607  74.2480010  60.8262449  36.0174639  74.9073220  60.7420992
  34.8044510  74.5929708  61.2978851  35.4395363  74.3961951  60.8835205
  26.8664620  66.2377614  76.0156056  26.0564396  66.5435394  75.9045899
  27.3439307  66.9583196  76.1308640  26.8168099  66.3892215  76.0163127
  25.7256180  75.4523335  66.2638959  25.2036933  75.5923627  66.9490824
  26.1130200  74.6933999  66.4541077  25.7059881  75.3608859  66.3940036
  22.7147364  65.5029144  60.3333914  22.4272160  65.1330414  59.5965861
  23.4017832  65.9723999  60.0717619  22.7736261  65.5176113  60.1848990
  31.9223185  77.1918794  60.2499528  31.6809861  76.4586655  59.8426593
  32.1024518  77.7405651  59.5965862  31.9130809  77.1641185  60.0929751
  27.1522505  72.4827354  61.6620450  26.9565288  73.0902088  61.0680753
  27.3756851  71.7895298  61.1812124  27.1557146  72.4704879  61.5036531
  25.5501035  69.3682092  61.7801319  26.2723687  69.5323250  61.3205125
  25.0709028  70.0891757  61.6740659  25.5864766  69.4980321  61.6966933
  33.5094543  65.7045891  67.1598004  32.6705644  65.7307169  66.9236267
  33.5798910  66.3516626  67.7403350  33.3962936  65.8042016  67.2107121
  31.9563821  62.6031268  61.8925620  32.6590174  62.4039016  61.4145578
  31.6908010  61.8307210  62.1994463  32.0210454  62.4594234  61.8671061
  37.3852067  70.9113877  64.4459246  37.2986041  71.0669303  65.2994024
  36.9302547  71.5551953  64.0718651  37.3055323  71.0289632  64.5166352
  20.2875558  66.2810356  61.1819195  20.3891695  67.0836517  61.5100171
  21.0831445  66.0797692  60.8842276  20.4203464  66.3696255  61.1854551
  26.7192378  63.8666553  70.9456500  26.5275575  63.8821687  71.7955924
  27.5690973  64.0630227  70.9223155  26.8168099  63.8980904  71.0679795
  21.1039291  66.3957534  68.9240317  20.9624782  65.5441475  69.0484825
  21.3879854  66.4386195  68.1002523  21.1247137  66.2757284  68.8207941
  31.2577883  68.2324624  63.0684805  31.0112597  68.1520375  63.9021594
  31.5863006  67.4478092  62.8747333  31.2699126  68.1050890  63.1632328
  35.1525932  74.9407984  66.8571586  35.0140291  75.6389030  67.3620329
  34.3725930  74.7856640  66.5007768  35.0169159  75.0208150  66.8797860
  27.2174910  70.9681343  72.4807788  27.3618286  71.5482551  71.8450898
  27.5650559  71.3457640  73.1857643  27.2902372  71.1102047  72.4906783
  29.3894828  70.1671511  70.2632920  28.6418142  70.3602526  69.8581198
  29.5436353  69.3416731  70.0257041  29.3017255  70.0736623  70.1678326
  36.6479305  74.2986238  57.6188086  36.2686113  73.5123375  57.6117375
  35.9845550  74.8473095  57.4759730  36.4937779  74.2631062  57.5968882
  29.6296605  64.0622062  71.1528323  30.0869219  64.7946036  71.2801116
  29.7052933  63.6388527  71.9115579  29.7087574  64.1079300  71.2829400
  21.8729596  64.3087882  72.2417767  21.3371785  63.6968240  72.5578534
  21.9347361  64.8836018  72.8951434  21.8025228  64.3034810  72.3853194
  34.1023930  57.2411937  65.0222166  34.2207499  57.6988401  64.2889469
  33.9286106  56.4357199  64.7358384  34.0943101  57.1905709  64.8723100
  27.5078982  66.0524166  67.9970147  26.7175057  65.8715626  68.3187483
  27.9039605  65.2751119  67.9800442  27.4495859  65.9111627  68.0422696
  31.9944873  74.8811940  53.4376861  32.7617858  74.9412065  53.0282713
  31.5476182  74.3092382  52.9533180  32.0418300  74.8048516  53.3054571
  32.8922669  73.6866596  65.7229593  32.2167671  73.4551828  66.2242980
  32.9015045  73.0787779  65.0971698  32.7941173  73.5625521  65.7045746
  30.0216813  68.5284425  72.4793646  29.9575954  69.3894382  72.3513783
  30.1614000  68.2116418  71.6789198  30.0332283  68.6084592  72.3421859
  34.8939403  76.5431729  57.9539771  34.9759241  77.3498715  57.6301222
  35.3789146  76.5627688  58.6780545  34.9776561  76.6652391  58.0126670
  28.7035907  71.2216565  66.6209849  28.2798156  71.4221064  65.8848868
  28.5280762  70.3745413  66.7334149  28.6146787  71.1265346  66.5283539
  23.9918352  71.7168616  62.0537822  24.1482971  71.6515419  62.9093814
  24.3318945  72.4917169  61.8416501  24.0651586  71.8217814  62.1492416
  30.5297496  71.0926500  60.9231185  31.0713042  70.5896881  61.3869806
  30.8444055  71.0391694  60.1120670  30.6561893  71.0105920  60.8714997
  28.6983946  76.4843851  58.2071213  28.7676766  75.6258390  58.3464213
  29.4772401  76.7015732  57.8790238  28.8236796  76.3896715  58.1788370
  31.6786766  65.9862804  70.9753485  31.8928735  65.3473718  70.4216839
  31.0620665  66.4308628  70.5461347  31.6192095  65.9572948  70.8303917
  20.5652613  68.9003566  62.3698589  20.9451578  69.3188111  61.7058856
  19.9907978  69.4817022  62.6767432  20.5363938  69.0481425  62.3175330
  33.8425854  67.5951869  71.9136793  33.0302535  67.2877760  71.9949965
  34.3015788  67.1150869  72.4779505  33.7906238  67.4788362  72.0091387
  33.2531108  75.4731541  62.3613737  32.8945763  75.6446184  63.1377769
  32.7669819  75.9344747  61.8041735  33.1289805  75.5670512  62.3939006
  31.0701494  59.0962740  65.9640828  30.1995052  59.0701461  65.9174138
  31.3241836  58.9239932  65.1466674  30.9795054  59.0672883  65.8360965
  28.0419474  71.1530707  54.9013971  28.3311999  71.9295589  55.1757546
  28.1291273  70.6419438  55.6028471  28.0973730  71.1922625  55.0456469
  28.0950635  61.1068968  67.4214299  27.5789123  60.4149160  67.5465878
  27.5344564  61.7739745  67.3676897  27.9357148  61.1032226  67.4320365
  30.1642868  61.6461928  69.2507151  29.7774621  61.6710960  70.0320681
  29.6775805  61.0803607  68.7981668  30.0355377  61.5657679  69.2995055
  36.1392848  68.2124583  67.8746853  35.7120456  68.1250932  67.1194953
  35.5018901  68.3202359  68.4601697  35.9822455  68.2157243  67.8492295
  29.8300010  58.5328914  71.5417411  30.4593128  59.0689214  71.2638482
  29.9985873  58.4406273  72.3930977  29.9477804  58.5990276  71.6265939
  29.6313925  63.3200108  73.8143823  30.4587354  63.0485257  73.8702437
  29.6521771  64.1160950  74.1707641  29.7566775  63.3979863  73.8759006
  24.2083415  70.4663971  67.0014083  23.3671421  70.3667845  67.2092977
  24.4173423  71.2359451  67.3528404  24.1148107  70.5656015  67.0841398
  21.6858982  68.0883508  64.8298834  21.2915679  68.1626520  64.0548944
  21.1299098  68.4741454  65.3807196  21.5461794  68.1565283  64.7966494
  33.3223928  61.0664802  64.5102713  33.5273522  60.9987110  65.3559710
  32.9950352  61.8723623  64.4423890  33.3039176  61.1750743  64.6262368
  28.0200080  68.3945370  66.2511681  27.7163217  67.8401359  66.8522089
  27.3179500  68.5737580  65.7639715  27.8716289  68.3390153  66.2681387
  27.0766177  65.7045890  60.8156383  27.3525911  64.9864803  60.4033950
  27.6764846  66.3030810  60.6077489  27.2059441  65.6866261  60.7237144
  36.5757616  61.6196566  63.9905478  35.9631930  62.1066969  64.3759210
  36.6721791  60.9440057  64.5343130  36.4995514  61.5914875  64.1284337
  30.5776697  63.3759408  59.0902978  31.0320444  63.5469968  59.8150822
  31.0516743  62.7627518  58.6900753  30.7145017  63.3110293  59.1376739
  24.0992223  72.8607734  68.4205716  23.5080156  73.5017232  68.3908731
  24.8613246  73.2845351  68.3937016  24.1240483  73.0183572  68.4120863
  24.4952845  64.0209731  69.0873734  24.9554327  64.0948661  69.8248858
  24.5408952  64.8190985  68.7373555  24.5703401  64.1503878  69.1446490
  26.1436195  64.6876426  73.6545761  25.7521760  64.0409773  74.0901539
  26.3122058  65.2787861  74.2740016  26.1107105  64.6790694  73.8108467
  33.8581739  78.3117045  65.8537741  33.6601427  78.8007860  65.1593952
  33.2369450  78.5158287  66.4321874  33.7369303  78.4133583  65.8360964
  27.9189717  70.0801942  60.1947985  28.6631762  70.4676218  60.4330935
  28.0650413  69.2359367  60.3588473  28.0500302  70.0132415  60.2541955
  29.8369293  61.8752201  65.2279846  28.9905338  62.0475009  65.1021196
  29.8340425  61.0701545  65.5645675  29.7116442  61.7813230  65.2590973
  30.9067593  65.6527415  66.0941904  30.4327547  65.1269177  66.6047215
  31.2785729  65.1056888  65.5256766  30.8917482  65.4943412  66.0857052
  21.2840623  67.6498922  71.4625450  22.1466236  67.5494631  71.3762780
  20.9532406  67.0693631  70.9011022  21.3625819  67.5490549  71.3670856
  37.1704324  70.7129791  67.5048685  36.9302546  69.8736206  67.5091111
  37.6496331  70.7929958  68.2289458  37.2056507  70.6011191  67.6123487
  32.8351093  66.5463970  59.1567658  32.3074111  66.6292714  58.4673367
  33.2946801  67.2881841  59.1532303  32.8252943  66.6684632  59.0542353
  39.1709511  67.4931248  65.4577944  38.9319281  67.4527082  64.6198729
  39.3343412  68.3402400  65.5843665  39.1599814  67.6123333  65.3531426
  24.6442409  66.4741371  68.1235868  24.0195479  66.4859763  67.5161821
  24.3088004  66.9501546  68.7727108  24.5027901  66.5459888  68.1292437
  24.8284158  64.8166489  54.1808553  24.4796962  65.4686215  54.6440103
  24.3480604  64.8023602  53.4532424  24.7054402  64.9109543  54.1419645
  32.3888175  75.1167533  58.2877315  33.1122374  75.5825646  58.1441888
  31.9488766  75.1841143  57.5374912  32.4303867  75.1951370  58.1562097
  31.5574330  71.9765076  69.5378004  30.9431323  71.4323126  69.8326639
  32.0741615  71.4629312  69.0583820  31.5429993  71.8201485  69.5102233
  30.7970627  73.0469346  67.2722303  30.3698235  72.4219064  66.8387738
  30.7895572  72.7644268  68.0981310  30.7329769  72.9122126  67.3302130
  23.9133154  68.0834519  70.3410737  24.0726641  67.3277843  70.7462459
  23.7326048  68.6325458  70.9951474  23.9098513  68.0528332  70.4973443
  31.8553457  60.2495754  70.8961526  31.3594019  60.4459428  70.2053093
  32.6122519  60.6488423  70.7250328  31.8940282  60.3373488  70.7681663
  29.1256337  63.9238100  67.4864837  29.1498824  63.3898212  66.7977617
  29.3767811  63.4155409  68.1490427  29.1666256  63.7699004  67.4829481
  25.4057659  62.6508918  66.8670581  25.4456031  63.1518125  67.5805289
  24.5807324  62.7419312  66.5976504  25.2897185  62.7390735  66.9321119
  26.8272023  69.1669428  69.1644480  25.9963952  69.3343246  68.9579728
  26.7723540  68.7905379  69.9493365  26.6961438  69.1359160  69.2493008
  24.6355806  62.6578321  74.8000891  25.2608509  62.1140454  75.0730323
  24.1806286  62.1773239  74.2308681  24.6604067  62.5067802  74.7562485
  25.2008066  67.4425020  59.6934598  25.3411028  67.9397484  60.3963239
  25.6990599  66.7411314  59.8348811  25.2949147  67.4126999  59.8186177
  25.2308289  68.3092131  57.0227175  25.8653368  68.9052556  56.9576636
  25.3133900  68.0095588  57.8373045  25.3364840  68.3533039  57.1330261
  26.8087272  64.2406106  56.9972617  27.1303113  63.7609189  56.3431879
  27.0714215  65.0505752  56.8063428  26.8953297  64.2896004  56.8728109
  30.0384245  75.2624981  70.5171433  29.5309336  75.8160827  70.9612063
  29.7410891  75.3233270  69.6990207  29.9189129  75.3531292  70.4619889
  32.2046427  63.6278300  69.3596096  32.6301498  63.1750827  68.7479622
  31.5903420  63.0738371  69.6360883  32.1775072  63.4792276  69.3101121
  21.7361277  70.5059972  60.2916721  22.2453506  71.1024479  60.6728026
  22.2095549  70.2385945  59.6093140  21.8804652  70.5545787  60.2471243
  30.6440650  60.0993400  62.7686673  30.0008968  59.9491046  63.3371811
  30.3040057  59.8535745  62.0035777  30.4985727  60.0405522  62.7389688
  35.2339996  68.0552827  62.1916681  34.5631186  68.5982529  62.0629747
  35.9279746  68.5247682  61.9498376  35.2368864  68.2051098  62.1372209
  35.3968124  64.5108710  65.1007055  35.7495734  64.0838433  65.7752853
  34.5382925  64.4259554  65.2308131  35.3217568  64.4353451  65.2202065
  24.0951809  67.1416230  63.1589901  23.3763798  67.5580363  63.4262765
  24.4664171  67.7070469  62.6081539  24.0443740  67.2865512  63.1172708
  33.3951389  67.7744079  69.0491897  33.3749317  67.5927374  69.9026676
  33.4430590  68.6456098  69.0251480  33.3986030  67.8760617  69.1715192
  29.8698383  66.1814230  58.4963281  29.2763222  66.5031227  57.9447848
  29.9073661  65.3355325  58.2884387  29.7872772  66.1038558  58.3846052
  36.8292184  59.6327122  66.0291367  36.3223048  58.9256262  65.9612545
  37.6259617  59.3020311  66.1592444  36.8719423  59.4800274  66.0390362
  32.7456199  66.1393735  61.9265031  32.5169892  66.1626436  61.0843389
  33.0054276  65.3151202  62.0460041  32.7502387  66.0209814  61.8190228
  27.0275428  67.9928208  71.5290131  26.5154331  67.3849391  71.8875162
  26.8554924  68.7084800  71.9964107  26.9265065  68.0091507  71.6506355
  25.8000962  64.6770281  63.2219226  26.2758328  65.0387361  62.5869408
  25.2989562  65.3326748  63.5019369  25.7966321  64.8264470  63.1695967
  39.0312324  74.1492049  59.0132231  39.4145929  74.8983405  59.2430328
  38.2356437  74.3957869  58.7544221  38.9706106  74.2961743  59.0089805
  30.9044498  65.9152452  73.9692387  31.4615928  65.6866262  73.3370852
  30.5805563  66.6758118  73.6927599  30.9390908  65.9936289  73.8348884
  27.8427615  66.8211481  56.5892610  28.2226580  66.8391110  55.8043725
  27.1020211  67.2665469  56.4683458  27.7896453  66.8893255  56.4556179
  35.4712906  65.1293672  62.1768189  35.4707132  64.9742328  63.0352465
  35.2669086  65.9756659  62.1209575  35.4412683  65.2314293  62.2956129
  17.5330177  68.5533456  66.5927006  17.3551938  68.1010065  67.3181921
  17.2449199  69.3559618  66.7765483  17.4643130  68.6056014  66.7270509
  33.1953758  69.8091174  65.8304396  33.6907423  69.0914169  65.7908416
  32.3853533  69.5061971  65.7158883  33.1497651  69.6588820  65.8078122
  28.6412369  73.6588987  57.9801400  27.8323692  73.3355660  57.9334710
  29.1487278  72.9522209  57.9129649  28.5962036  73.5070303  57.9631695
  19.2702646  71.0861180  63.7048765  18.4048166  71.0746870  63.5931536
  19.3701462  70.8991403  64.5519904  19.1576813  71.0567241  63.8137709
  35.2605577  72.5594861  68.5181525  35.6860648  72.0369283  67.9651950
  34.8962496  73.1575699  67.9970148  35.2692179  72.5705088  68.3590534
  31.8484176  76.2729125  64.8482682  32.3195354  76.9869388  65.0172667
  32.1844355  75.6727876  65.3842552  31.9679291  76.2900590  64.9515058
  31.8386026  57.9686922  68.4021870  31.0331990  57.8584652  68.7189709
  31.7092762  58.0699378  67.5451736  31.7006159  57.9670592  68.3229911
  35.2951987  64.1332414  68.9961567  34.7114975  64.6341621  68.5839135
  35.6156281  63.6261970  68.3625890  35.2565162  64.1324249  68.8420074
  27.8346786  63.0473009  59.2720242  28.6562480  63.2171322  59.0301937
  27.3716437  63.2020270  58.5486540  27.8877948  63.0954742  59.1291886
  26.4242118  61.0415771  70.0518671  26.9686531  60.7006898  70.6423012
  26.4779053  61.9001233  70.1939955  26.5131237  61.1171030  70.1600544
  32.0516449  77.0698132  68.1419716  32.8714822  76.9261098  68.4036011
  31.7710526  77.6944331  68.6836154  32.1313192  77.1408484  68.2607655
  38.4505571  78.6617701  64.8305906  38.1208901  79.1128844  64.1609605
  37.7750572  78.5833864  65.3778912  38.3016007  78.7168836  64.8129129
  45.6581978  74.6503223  63.0755517  45.3435419  75.3406702  63.5075939
  45.1408920  74.5948006  62.3741017  45.5346449  74.7438112  63.0352466
  36.6561525  76.7229989  60.3128854  37.4107493  77.0908306  60.0745904
  36.4789059  77.0969543  61.0808033  36.7416003  76.8328177  60.3913742
  35.0118589  79.1300308  57.0106967  34.8294163  79.3472189  56.1847959
  35.8744202  79.2439321  57.0665581  35.1123179  79.1790206  56.8961454
  40.6918309  76.1326719  60.0455990  41.4204469  75.9542674  59.5994147
  40.7813201  76.9744798  60.2563169  40.8124971  76.2310597  60.0109508
  35.7612595  77.5456192  62.8917038  34.8935021  77.6178792  62.9574647
  36.0487800  78.3478271  63.0805013  35.6752343  77.6750339  62.9291804
  42.9296405  78.1216576  61.8925620  43.6322758  77.9224324  61.4145578
  42.6640594  77.3492518  62.1994463  42.9943037  77.9779542  61.8671061
  45.0756514  72.7597245  65.0222166  45.1940082  73.2173709  64.2889469
  44.9018690  71.9542506  64.7358384  45.0675685  72.7091017  64.8723100
  42.0434078  74.6148048  65.9640828  41.1727636  74.5886769  65.9174138
  42.2974419  74.4425240  65.1466674  41.9527638  74.5858191  65.8360965
  41.5509281  78.8944715  59.0902978  42.0053027  79.0655276  59.8150822
  42.0249326  78.2812826  58.6900753  41.6877601  78.8295601  59.1376739
  40.8101876  77.3937509  65.2279846  39.9637921  77.5660317  65.1021196
  40.8073009  76.5886852  65.5645675  40.6849026  77.2998538  65.2590973
  43.8083676  82.0649278  59.1567658  43.2806695  82.1478022  58.4673367
  44.2679384  82.8067149  59.1532303  43.7985527  82.1869940  59.0542353
  37.7819855  79.7591414  56.9972617  38.1035696  79.2794497  56.3431879
  38.0446799  80.5691060  56.8063428  37.8685881  79.8081312  56.8728109
  41.6173233  75.6178708  62.7686673  40.9741551  75.4676354  63.3371811
  41.2772640  75.3721053  62.0035777  41.4718310  75.5590830  62.7389688
  38.8079369  78.5658317  59.2720242  39.6295064  78.7356630  59.0301937
  38.3449020  78.7205578  58.5486540  38.8610532  78.6140050  59.1291886
  15.2983172  15.1085191  48.0402639  15.2677177  15.9629828  48.2120909
  15.8964521  14.8080484  48.5988783  15.3820330  15.1901688  48.1477442
   8.4982857  14.1960842  52.7955570   7.6420753  14.3569341  52.8464686
   8.5450511  13.3252906  52.8160631   8.3781969  14.0911644  52.8061636
   2.8823997  23.7323560  48.5592801   2.1306896  23.3539099  48.3308846
   3.3310008  23.7641994  47.8111612   2.8373664  23.6809167  48.4150303
  11.8076574  20.4647368  62.4016026  12.5143341  19.9699399  62.5302960
  11.9964509  20.9056449  61.6718684  11.9404479  20.4565718  62.3125071
   8.3348957  24.1548930  43.9878348   8.0000325  24.8325851  43.5522570
   8.8475827  23.7654241  43.3995220   8.3614538  24.1973508  43.8365140
   7.8753248  26.1063198  49.9289460   8.2592627  26.6750097  49.3894235
   7.8112389  25.3812709  49.4495276   7.9226675  26.0838662  49.7783322
  11.3434678  16.2552886  55.4387221  11.8890638  16.9337973  55.4981191
  11.2851554  16.1140347  54.5788803  11.4150592  16.3344888  55.3199282
   4.4608753  23.7441952  50.8255574   4.5619116  22.9342306  51.1352701
   3.8650498  23.6498899  50.1955252   4.3881292  23.6106980  50.7781812
  13.1199747  17.6837493  46.3120949  13.0039273  18.4345179  46.7413087
  13.9155633  17.4261447  46.5617036  13.2204336  17.7572340  46.4125041
   4.3009493  28.6619542  52.2270430   4.9446948  29.1032706  52.6166588
   4.6265748  27.8572968  52.1400689   4.4441321  28.6084736  52.2715907
   5.0030072  21.6731516  47.5990291   5.3245913  22.2136724  46.9951600
   5.6502169  21.1028288  47.7312581   5.1456127  21.6690692  47.5297327
   7.0531780  13.6747511  47.6824678   7.7511945  13.8535639  48.1746141
   7.3684113  13.1517851  47.0595068   7.2027118  13.6241283  47.6626688
   7.2419716  20.0617956  47.6704470   7.6813351  19.4535057  48.1159242
   7.0924379  19.6825330  46.8989935   7.2841181  19.9156427  47.6223637
   4.7091359  18.6561968  54.8723295   5.3540361  18.1634411  54.5534244
   4.9493136  18.7986755  55.6989373   4.8401944  18.6039410  54.9472828
   7.2477450  21.5016874  54.5230188   7.5300693  20.7068280  54.3016944
   7.9763610  21.9797462  54.5435249   7.3967014  21.4551471  54.4933203
  10.8429052  18.4145138  44.6235239  10.7580347  19.2706104  44.7684808
  11.3313435  18.1389462  45.2917398  10.9017950  18.5002459  44.7437320
  12.4335052   5.0325431  50.0095563  12.1188493   5.7228909  50.4415986
  11.9161993   4.9770213  49.3081064  12.3099522   5.1260319  49.9692513
  11.7747485  15.0329932  46.1232974  11.2458957  15.2489565  46.7830280
  12.2972505  15.7266070  46.0433943  11.7735938  15.1673069  46.2088573
  17.2295538  20.6076236  51.4966018  16.3993242  20.8186880  51.6599435
  17.1804791  19.7813291  51.2208302  17.1002274  20.5165843  51.4803384
   3.6647093  18.9293149  44.9240442   3.0804309  19.4343180  45.3306306
   3.2617188  18.7035536  44.1837034   3.5186397  18.9701397  44.8745467
   5.2905276  23.4380090  54.3313928   4.7732218  23.0787505  53.7275236
   5.9879667  22.9142265  54.3419994   5.3170857  23.3077778  54.2444187
   8.9468868  23.8874905  60.2930101   9.0352214  23.7001045  61.1408311
   9.3758580  23.2412334  59.8934948   9.0230970  23.7637912  60.3601853
   6.5139328  23.1706064  59.2747763   5.9510163  22.7578674  59.7987424
   7.2760351  23.0958970  59.6940907   6.5433776  23.0983465  59.4140764
   8.1224308  15.1758801  43.4009363   8.3620311  15.3836784  42.5884706
   8.4440149  14.3716309  43.5098307   8.2061466  15.0872902  43.2969916
   2.0735319  25.1604086  51.8784393   2.7755898  24.6456075  51.9357150
   1.9932802  25.4878237  52.6831268   2.1659080  25.1318312  52.0057186
  16.7249497  13.2546637  55.2916440  15.8877918  13.3248824  55.5264034
  16.6937728  13.2571132  54.4190742  16.5967779  13.2656864  55.1975988
   1.3986095  21.3510438  51.3870001   2.2374994  21.5833370  51.4343763
   1.4297864  20.4814749  51.3177037   1.5267812  21.2567384  51.3834646
   2.0238798  21.7711313  55.6883307   2.5637023  21.6282444  56.3586679
   1.3408744  22.1708064  56.0567333   2.0030951  21.8090984  55.8417729
  11.4479682  17.4502313  50.8828331  12.2037198  17.8833828  50.9217240
  11.5542007  16.8007083  51.4562967  11.5749853  17.4179797  50.9726357
  14.4859854  21.2775591  51.6330734  14.0495085  21.2812333  52.3889706
  14.1522769  21.9581090  51.2010312  14.3722474  21.3788046  51.6811567
   9.0588927  23.3183924  62.9573885   9.8429344  23.4314771  63.3229627
   8.8585522  22.4925061  63.1532570   9.1454953  23.2130643  63.0408271
  14.4057337   8.3189419  53.8760162  15.0483245   8.3887523  54.4622077
  14.6580357   7.6518641  53.3739704  14.5379469   8.2315767  53.8887441
   1.3333690  12.7896688  42.4569487   0.6191867  12.5034868  42.8691919
   1.8177658  13.1293314  43.0975874   1.2993053  12.7978338  42.6125121
   9.2159321  25.2294026  56.6040340   8.4174566  24.9893526  56.8614209
   9.6645332  25.2808418  57.3507388   9.1633932  25.2016417  56.7525264
  17.6204200  17.9956511  50.5250372  18.2820634  17.4347179  50.4246280
  16.9795612  17.5008541  50.8503063  17.6233067  17.8392920  50.5582712
   8.5081008  21.2926642  42.8331295   8.9232156  20.9611666  42.1415791
   7.6772937  21.0595544  42.7051431   8.4469016  21.2097898  42.7122142
  13.9069031  19.0121893  50.2662360  14.1424620  19.1567092  49.4389211
  14.0558594  19.7764301  50.6593874  13.9634834  19.1460947  50.2025964
  15.7359487  17.8523559  48.1031964  16.0667704  18.3851199  47.4972059
  16.3092575  17.9062447  48.7593915  15.8693166  17.9393128  48.1109746
  10.9491376  15.6988462  48.7855544  11.0438231  16.4377756  49.2395170
  10.3250220  15.2705937  49.2190109  10.8700406  15.7449782  48.9163692
   9.2043850  18.8774674  59.4345825   9.7782712  18.2401918  59.5894389
   9.1258654  18.8778757  58.5655483   9.2777085  18.7839786  59.3292236
  11.2014398  17.5437201  42.0192496  11.1194560  17.6139389  42.8847483
  11.8394118  18.1066945  41.8276237  11.2834235  17.6376173  42.1182446
   4.5607569  17.3097939  51.4867023   4.3026813  16.4769674  51.4598322
   4.6156052  17.5355552  50.6459523   4.5307347  17.2195711  51.3587159
   9.6408619   9.4126390  51.5871115   8.9364946   8.9235576  51.7455034
   9.6893593   9.4248864  50.7159560   9.5438671   9.3416038  51.4810455
   3.5342281  14.8635702  51.9731917   2.9591872  15.0227870  52.6095878
   3.1577957  14.2271111  51.5100368   3.3945093  14.7933515  51.9986476
   7.2015570  13.3359051  56.8324296   6.8130002  12.9113269  56.1776487
   6.5370268  13.5841201  57.3401322   7.0462497  13.3097772  56.8112164
  16.8438839  13.0934056  49.6072126  16.5875404  12.2813997  49.4170009
  17.6868153  13.1011623  49.3802313  16.9304864  12.9746053  49.5456943
  11.0241931   7.0333680  54.3448280  11.4052443   6.3511851  54.7316154
  10.2205215   6.7443282  54.1623944  10.9618393   6.8900728  54.3752336
   8.3054508  17.5657656  45.0301103   9.1195147  17.8572548  44.9183874
   8.2413649  16.9117518  44.4559396   8.4157247  17.5122850  44.9289940
  14.5263998  20.2483652  59.4430678  14.2902635  19.4171717  59.3242739
  15.1707227  20.1969259  60.0285523  14.5858669  20.1181340  59.5116572
   4.1762416  21.0379173  50.1573415   4.8136363  20.7990921  50.7025208
   4.6017488  21.2416332  49.4226575   4.3338582  21.0330183  50.1290572
   4.8165231  16.2581463  44.4948304   5.2010384  16.0389170  45.2464849
   4.5676852  17.0844408  44.6249381   4.8367304  16.3479609  44.6249381
  15.5500419  20.0328101  55.5058973  15.2446236  20.7656157  55.8672288
  14.8306634  19.6266030  55.2251759  15.3987761  20.0809834  55.5172110
   6.5583888  21.5151596  51.8367201   6.6322896  21.3526768  52.6909051
   7.3753394  21.7041785  51.5927683   6.6900247  21.5188338  51.9265227
  21.2502211  16.6721101  54.8327317  21.1826711  16.6917060  53.9629904
  21.2357873  17.5151428  55.0582988  21.2380967  16.7994836  54.7379794
   5.0988474  24.4786339  46.5680674   5.3886772  24.0875320  45.8439901
   5.8291955  24.6603044  47.0085950   5.2495358  24.4480153  46.5263481
  19.0360828  15.4465487  53.1073911  19.5868750  14.8133557  53.3471004
  19.0204944  15.9780880  53.7989416  19.1146025  15.4314436  53.2452770
   5.6883219  19.2804085  57.6533805   5.1894913  19.9919852  57.7318693
   6.4983443  19.6004751  57.6151967   5.7339326  19.4330933  57.6590373
   3.0394389  26.4553721  49.6340824   2.8194685  26.1651076  50.4267491
   2.8188911  25.7968676  49.1058736   2.9741984  26.3153430  49.6729733
   1.9511337  18.5427038  51.8996526   1.6624585  17.9164509  52.4342253
   2.8194685  18.4847325  51.9661206   2.0371589  18.4414582  51.9887480
  12.7389234  13.6861821  52.2178508  12.3954000  12.9652156  52.5685757
  12.8382277  13.4775672  51.3756866  12.7031277  13.5486024  52.1450188
   5.2062345  27.8283111  48.4171517   5.8586403  27.2959553  48.6462543
   4.5087954  27.4751764  48.8039391   5.1993063  27.6972634  48.5083684
   2.1543610  20.1822289  47.8238891   2.9089578  20.5635328  48.0374353
   1.5614223  20.6333432  48.2785587   2.1780324  20.3051116  47.9221769
  13.2002263  20.1487525  47.7602496  13.7660296  20.8080735  47.6761039
  12.5530167  20.4937223  48.2318898  13.1881020  20.2969467  47.8175252
   3.4741837  21.3530850  53.1979006   2.9522590  21.4931142  53.8830871
   3.8615857  20.5941514  53.3881124   3.4545537  21.2616374  53.3280083
   9.6708842  23.0926309  47.1839575   9.4295517  22.3594170  46.7766640
   9.8510174  23.6413166  46.5305908   9.6616466  23.0648701  47.0269798
   4.9008162  18.3834869  48.5960497   4.7050945  18.9909604  48.0020800
   5.1242508  17.6902813  48.1152171   4.9042803  18.3712395  48.4376578
   3.2986692  15.2689607  48.7141366   4.0209344  15.4330765  48.2545172
   2.8194685  15.9899272  48.6080705   3.3350423  15.3987837  48.6306980
  11.2580200  11.6053406  54.0938051  10.4191300  11.6314685  53.8576314
  11.3284567  12.2524141  54.6743397  11.1448593  11.7049532  54.1447167
   0.9494309  17.6747679  57.8195506   1.4615406  17.9531933  57.1704265
   0.6630652  18.4136974  58.1858319   0.9829172  17.8250033  57.7785384
   9.7049478   8.5038783  48.8265667  10.4075831   8.3046531  48.3485625
   9.4393667   7.7314725  49.1334510   9.7696110   8.3601749  48.8011108
  15.1337724  16.8121393  51.3799292  15.0471698  16.9676819  52.2334071
  14.6788204  17.4559468  51.0058697  15.0540980  16.9297148  51.4506399
   9.0063540  14.1332140  50.0024852   8.7598254  14.0527891  50.8361641
   9.3348663  13.3485608  49.8087379   9.0184783  14.0058405  50.0972375
  12.9011588  20.8415499  53.7911633  12.7625948  21.5396545  54.2960375
  12.1211586  20.6864156  53.4347815  12.7654815  20.9215666  53.8137907
  11.2389674  17.1411874  60.0434015  11.2337712  16.2691691  60.0476441
  11.9450667  17.3400044  59.5703470  11.3434678  17.0415749  59.9741050
   4.9660567  16.8688858  59.4147835   5.1103943  17.4490067  58.7790945
   5.3136216  17.2465155  60.1197690   5.0388028  17.0109562  59.4246830
   7.1380484  16.0679027  57.1972967   6.3903798  16.2610041  56.7921245
   7.2922010  15.2424246  56.9597088   7.0502912  15.9744138  57.1018372
   4.0388322  25.0591630  56.2808862   4.1877886  24.4994546  55.6282266
   4.8188324  25.1383632  56.6641381   4.1762416  24.9877196  56.2405811
  14.3964961  20.1993753  44.5528132  14.0171770  19.4130891  44.5457422
  13.7331207  20.7480610  44.4099777  14.2423436  20.1638577  44.5308929
   6.5641623  25.2306273  57.5593353   6.4885294  24.5615084  58.1144141
   6.4931482  25.9324061  58.0734019   6.5422229  25.2351180  57.7170201
   7.2211870  23.7507272  48.3916959   7.9861761  23.4816916  48.0699623
   7.1189959  23.2657282  49.1087021   7.3193365  23.6396837  48.4496786
   5.2564639  11.9531681  54.9310194   4.4660714  11.7723141  55.2527530
   5.6525262  11.1758634  54.9140489   5.1981515  11.8119142  54.9762743
   9.7430530  20.7819456  40.3716908  10.5103515  20.8419581  39.9622760
   9.2961839  20.2099897  39.8873226   9.7903957  20.7056031  40.2394618
  10.6408326  19.5874112  52.6569640   9.9653327  19.3559344  53.1583027
  10.6500702  18.9795294  52.0311745  10.5426830  19.4633037  52.6385792
   7.7702470  14.4291941  59.4133693   7.7061611  15.2901897  59.2853830
   7.9099657  14.1123934  58.6129244   7.7817940  14.5092107  59.2761906
  12.6425060  22.4439244  44.8879818  12.7244898  23.2506230  44.5641269
  13.1274802  22.4635203  45.6120592  12.7262218  22.5659906  44.9466717
   6.4521563  17.1224080  53.5549896   6.0283813  17.3228579  52.8188914
   6.2766419  16.2752928  53.6674196   6.3632444  17.0272861  53.4623586
   5.9533257  28.6374593  56.0171353   6.4429187  27.9385382  55.8347018
   5.3817489  28.3398463  56.6047411   5.9417787  28.4900816  56.0772394
   1.7404008  17.6176131  48.9877869   1.8968628  17.5522934  49.8433861
   2.0804602  18.3924684  48.7756548   1.8137243  17.7225329  49.0832463
   8.2783153  16.9934015  47.8571232   8.8198698  16.4904396  48.3209852
   8.5929712  16.9399210  47.0460717   8.4047550  16.9113436  47.8055044
  12.1500260  21.2036662  64.9698144  12.9635126  20.9321811  65.1303277
  11.9895227  20.9044202  64.1658340  12.2470209  21.1191588  64.8743550
   6.4469603  22.3851366  45.1411260   6.5162423  21.5265905  45.2804260
   7.2258058  22.6023247  44.8130284   6.5722453  22.2904230  45.1128417
   9.4272422  11.8870319  57.9093532   9.6414392  11.2481234  57.3556886
   8.8106322  12.3316143  57.4801394   9.3677752  11.8580463  57.7643963
  10.8377090  24.8089068  49.3547753  10.4456882  24.5055783  48.6370619
  10.9930163  25.6458158  49.1652707  10.8030680  24.8872904  49.2204250
  11.5911510  13.4959385  58.8476839  10.7788192  13.1885275  58.9290012
  12.0501445  13.0158385  59.4119552  11.5391895  13.3795877  58.9431434
  11.0016765  21.3739057  49.2953784  10.6431420  21.5453699  50.0717816
  10.5155476  21.8352262  48.7381782  10.8775462  21.4678028  49.3279053
   5.7905130  17.0538222  41.8354018   6.0797655  17.8303104  42.1097592
   5.8776929  16.5426953  42.5368517   5.8459387  17.0930140  41.9796516
  12.1621504  22.2642952  60.2420985  12.8001225  21.7703148  59.9083441
  11.5195596  22.1920353  59.6573211  12.1615731  22.1801961  60.1063340
  13.8878505  14.1132098  54.8086900  13.4606113  14.0258447  54.0535000
  13.2504557  14.2209874  55.3941744  13.7308112  14.1164758  54.7832342
  12.2175761  22.9562761  56.8826341  13.0068139  22.6051825  57.0028423
  12.3919359  23.7699149  56.6202975  12.3596043  23.0248618  56.8614209
   1.9569071  16.3671486  53.9354130   1.1157078  16.2675361  54.1433024
   2.1659079  17.1366967  54.2868451   1.8633764  16.4663530  54.0181445
  11.0709585   6.9672317  51.4442760  11.2759179   6.8994625  52.2899757
  10.7436009   7.7731139  51.3763937  11.0524833   7.0758258  51.5602415
   5.7685736  14.2952886  53.1851728   5.4648874  13.7408874  53.7862135
   5.0665157  14.4745096  52.6979762   5.6201946  14.2397668  53.2021433
   4.8251833  11.6053405  47.7496430   5.1011568  10.8872318  47.3373997
   5.4250503  12.2038325  47.5417536   4.9545098  11.5873776  47.6577191
   3.8304087  21.5102606  57.8923826   3.7224442  21.5204669  58.7585884
   4.0399869  22.3357387  57.7028779   3.8454198  21.6343681  57.9927917
  14.3243273   7.5204082  50.9245525  13.7117587   8.0074484  51.3099257
  14.4207448   6.8447573  51.4683176  14.2481171   7.4922390  51.0624383
   8.3262354   9.2766923  46.0243025   8.7806100   9.4477483  46.7490869
   8.8002400   8.6635034  45.6240800   8.4630674   9.2117808  46.0716786
   1.8477879  18.7615249  55.3545763   1.2565813  19.4024747  55.3248778
   2.6098903  19.1852866  55.3277063   1.8726140  18.9191087  55.3460910
  17.9668301  18.5921018  56.3523041  18.0251425  19.0407667  57.0983018
  17.3334768  19.0019831  55.9153121  17.8819596  18.7194753  56.3975590
  11.6067396  24.2124560  52.7877788  11.4087084  24.7015375  52.0933999
  10.9855107  24.4165802  53.3661921  11.4854960  24.3141099  52.7701011
   5.6675374  15.9809457  47.1288032   6.4117419  16.3683734  47.3670982
   5.8136070  15.1366883  47.2928520   5.7985959  15.9139930  47.1882002
   8.6553250  11.5534931  53.0281951   8.1813204  11.0276693  53.5387262
   9.0271386  11.0064403  52.4596813   8.6403139  11.3950927  53.0197098
  14.9189980  16.6137306  54.4388732  14.6788203  15.7743721  54.4431158
  15.3981988  16.6937473  55.1629505  14.9542164  16.5018706  54.5463534
  10.5836749  12.4471485  46.0907705  10.0559768  12.5300229  45.4013414
  11.0432458  13.1889357  46.0872350  10.5738600  12.5692147  45.9882400
  16.9195167  13.3938763  52.3917991  16.6804937  13.3534598  51.5538775
  17.0829069  14.2409915  52.5183712  16.9085471  13.5130848  52.2871473
  13.5241197  17.7788713  58.3223036  14.2475396  17.3261239  58.1434056
  13.2591160  18.0593378  57.5395364  13.5922471  17.7539681  58.1801751
   2.3928066  12.3748886  55.0575915   1.7681136  12.3867278  54.4501868
   2.0573661  12.8509061  55.7067155   2.2513558  12.4467403  55.0632484
  10.1373832  21.0175049  45.2217362  10.8608031  21.4833162  45.0781935
   9.6974423  21.0848658  44.4714959  10.1789524  21.0958885  45.0902143
   9.3059987  17.8772591  56.4718051   8.6916980  17.3330641  56.7666686
   9.8227272  17.3636827  55.9923867   9.2915649  17.7209000  56.4442279
   8.5456284  18.9476861  54.2062350   8.1183892  18.3226580  53.7727785
   8.5381229  18.6651783  55.0321357   8.4815425  18.8129642  54.2642177
   6.8741994   9.8245615  54.4204884   6.8984481   9.2905728  53.7317664
   7.1253467   9.3162924  55.0830474   6.9151913   9.6706519  54.4169528
   4.5757679  15.0676944  56.0984527   3.7449609  15.2350762  55.8919775
   4.5209197  14.6912894  56.8833412   4.4447094  15.0366675  56.1833055
   2.9493723  13.3432535  46.6274645   3.0896684  13.8404999  47.3303286
   3.4476256  12.6418830  46.7688858   3.0434804  13.3134514  46.7526224
   2.9793946  14.2099646  43.9567221   3.6139025  14.8060071  43.8916683
   3.0619556  13.9103104  44.7713092   3.0850497  14.2540554  44.0670308
  15.9576511  16.7415124  56.8253586  16.5494352  17.3812374  56.8571784
  16.3935506  16.0438160  57.1145652  16.1094943  16.7333474  56.8734418
   4.5572929  10.1413622  43.9312663   4.8788770   9.6616704  43.2771926
   4.8199872  10.9513268  43.7403475   4.6438954  10.1903519  43.8068156
   7.7869901  21.1632496  57.4511480   7.2794992  21.7168343  57.8952110
   7.4896547  21.2240786  56.6330254   7.6674786  21.2538807  57.3959936
   9.9532084   9.5285816  56.2936143  10.3787155   9.0758342  55.6819669
   9.3389077   8.9745886  56.5700930   9.9260729   9.3799792  56.2441168
  10.3977682  25.0795754  45.3815423   9.6806991  24.9056616  44.9162660
  11.0484419  24.8448326  44.8490909  10.3879532  25.0191546  45.2344641
  12.9825653  13.9560342  49.1256728  12.3116843  14.4990044  48.9969794
  13.6765403  14.4255197  48.8838423  12.9854520  14.1058613  49.0712256
   7.0312387  26.0957054  54.3568486   6.8078041  25.3375883  54.7252513
   6.5422230  26.1255075  53.6348926   6.9255836  25.9879279  54.3045227
  13.1453780  10.4116226  52.0347101  13.4981390   9.9845949  52.7092900
  12.2868582  10.3267069  52.1648178  13.0703225  10.3360966  52.1542112
   1.8437465  13.0423745  50.0929948   1.1249454  13.4587878  50.3602811
   2.2149828  13.6077984  49.5421586   1.7929397  13.1873027  50.0512755
  11.1437046  13.6751594  55.9831944  11.1234973  13.4934890  56.8366722
  11.1916247  14.5463613  55.9591527  11.1471687  13.7768133  56.1055238
   9.0883376  20.2638786  61.9080420   9.0479231  19.6188463  61.3225576
   9.9006694  20.2075404  62.2205832   9.2026529  20.1597753  61.8677369
   5.6790844  26.3157512  51.8105571   5.2651242  25.6531642  51.4209413
   6.3638218  26.4635371  51.2901265   5.7189215  26.2398170  51.6762068
   9.0456138  25.4747598  52.5629188   8.6472421  25.5849868  51.7950008
   8.4307357  25.6829664  53.1455747   8.8955027  25.5221166  52.5360487
   7.6184040  12.0821745  45.4303327   7.0248879  12.4038742  44.8787894
   7.6559317  11.2362841  45.2224433   7.5358429  12.0046074  45.3186099
  14.5777840   5.5334638  52.9631414  14.0708705   4.8263777  52.8952591
  15.3745274   5.2027826  53.0932490  14.6205080   5.3807789  52.9730409
  10.4941856  12.0401250  48.8605078  10.2655549  12.0633951  48.0183436
  10.7539932  11.2158717  48.9800088  10.4988044  11.9217330  48.7530275
   3.5486619  10.5777796  50.1559273   4.0243985  10.9394876  49.5209454
   3.0475218  11.2334264  50.4359416   3.5451978  10.7271985  50.1036014
  16.7797980  20.0499564  45.9472278  17.1631586  20.7990920  46.1770375
  15.9842094  20.2965384  45.6884267  16.7191763  20.1969258  45.9429852
   5.5913272  12.7218996  43.5232657   5.9712237  12.7398625  42.7383772
   4.8505868  13.1672985  43.4023505   5.5382110  12.7900771  43.3896225
  13.2198562  11.0301187  49.1108236  13.2192789  10.8749844  49.9692512
  13.0154742  11.8764174  49.0549622  13.1898340  11.1321808  49.2296175
  10.9439414  15.7098689  52.7644443  11.4393080  14.9921684  52.7248463
  10.1339190  15.4069487  52.6498930  10.8983308  15.5596335  52.7418169
   6.3898026  19.5596502  44.9141447   5.5809349  19.2363176  44.8674757
   6.8972935  18.8529724  44.8469696   6.3447693  19.4077819  44.8971742
  13.0091233  18.4602376  55.4521572  13.4346305  17.9376798  54.8991997
  12.6448153  19.0583214  54.9310195  13.0177836  18.4712603  55.2930581
   2.6445313  26.7566594  54.2118917   2.9591872  27.5702982  54.2196699
   3.0538726  26.3716813  54.8801076   2.7513411  26.8195296  54.3123009
   9.5969833  22.1736641  51.7822729  10.0681011  22.8876903  51.9512714
   9.9330011  21.5735391  52.3182599   9.7164948  22.1908105  51.8855105
  11.6846817  23.7837954  63.9614801  11.7943783  22.9946515  64.3171548
  12.0137714  23.6943890  63.1589139  11.7499223  23.6543807  63.8957192
  10.2343779  21.9654575  58.5450422   9.6864725  21.3412458  58.2770487
  10.6956808  22.1548847  57.8294501  10.2210989  21.9013625  58.4000853
  13.0437643  10.0339929  55.9301614  12.4600632  10.5349136  55.5179181
  13.3641938   9.5269486  55.2965937  13.0050819  10.0331764  55.7760121
   5.5832443   8.9480524  46.2060289   6.4048137   9.1178837  45.9641984
   5.1202094   9.1027785  45.4826586   5.6363605   8.9962257  46.0631933
   9.8002105  22.9705648  55.0759763  10.6200479  22.8268614  55.3376058
   9.5196183  23.5951846  55.6176201   9.8798849  23.0416000  55.1947702
  26.2715756  30.6270499  48.0402639  26.2409760  31.4815136  48.2120909
  26.8697105  30.3265792  48.5988783  26.3552914  30.7086996  48.1477442
  19.4715441  29.7146150  52.7955570  18.6153336  29.8754649  52.8464686
  19.5183094  28.8438214  52.8160631  19.3514552  29.6096952  52.8061636
  13.8556580  39.2508868  48.5592801  13.1039480  38.8724406  48.3308846
  14.3042592  39.2827302  47.8111612  13.8106247  39.1994475  48.4150303
  22.7809157  35.9832676  62.4016026  23.4875924  35.4884707  62.5302960
  22.9697093  36.4241757  61.6718684  22.9137063  35.9751026  62.3125071
  19.3081540  39.6734238  43.9878348  18.9732909  40.3511159  43.5522570
  19.8208411  39.2839549  43.3995220  19.3347121  39.7158816  43.8365140
  18.8485832  41.6248506  49.9289460  19.2325211  42.1935405  49.3894235
  18.7844973  40.8998017  49.4495276  18.8959259  41.6023970  49.7783322
  22.3167262  31.7738194  55.4387221  22.8623222  32.4523281  55.4981191
  22.2584138  31.6325655  54.5788803  22.3883176  31.8530196  55.3199282
  15.4341337  39.2627260  50.8255574  15.5351699  38.4527614  51.1352701
  14.8383082  39.1684207  50.1955252  15.3613875  39.1292288  50.7781812
  24.0932330  33.2022801  46.3120949  23.9771856  33.9530487  46.7413087
  24.8888217  32.9446755  46.5617036  24.1936920  33.2757648  46.4125041
  15.2742076  44.1804849  52.2270430  15.9179532  44.6218014  52.6166588
  15.5998332  43.3758276  52.1400689  15.4173905  44.1270044  52.2715907
   8.6306381  35.2847547  50.4507907   8.3956565  34.4515199  50.3440176
   8.7692022  35.5652213  49.6369108   8.6162043  35.2031050  50.3150262
  10.9296468  27.4533277  53.3492215  10.3101500  26.8625925  53.1802230
  10.8280332  28.0444713  52.7156538  10.8234144  27.4537360  53.2297205
  15.9762656  37.1916824  47.5990291  16.2978497  37.7322032  46.9951600
  16.6234752  36.6213596  47.7312581  16.1188711  37.1875999  47.5297327
  18.0264364  29.1932819  47.6824678  18.7244529  29.3720947  48.1746141
  18.3416696  28.6703159  47.0595068  18.1759701  29.1426591  47.6626688
  10.6565601  30.9985559  55.5935784  10.5324298  31.5848005  56.2285603
  11.3083886  30.5045755  55.8948059  10.7339251  31.0124364  55.7321713
  18.2152299  35.5803264  47.6704470  18.6545935  34.9720365  48.1159242
  18.0656962  35.2010638  46.8989935  18.2573765  35.4341735  47.6223637
  15.6823942  34.1747276  54.8723295  16.3272945  33.6819719  54.5534244
  15.9225719  34.3172063  55.6989373  15.8134527  34.1224718  54.9472828
  18.2210034  37.0202182  54.5230188  18.5033276  36.2253588  54.3016944
  18.9496194  37.4982769  54.5435249  18.3699597  36.9736779  54.4933203
  16.1991227  24.5625216  51.7645953  15.8694558  25.0136359  51.0949652
  15.5236229  24.4841379  52.3118959  16.0501664  24.6176351  51.7469176
  21.8161636  33.9330446  44.6235239  21.7312931  34.7891412  44.7684808
  22.3046019  33.6574770  45.2917398  21.8750533  34.0187767  44.7437320
  23.4067635  20.5510739  50.0095563  23.0921076  21.2414217  50.4415986
  22.8894577  20.4955521  49.3081064  23.2832106  20.6445627  49.9692513
  22.7480069  30.5515240  46.1232974  22.2191541  30.7674873  46.7830280
  23.2705089  31.2451378  46.0433943  22.7468522  30.6858377  46.2088573
  14.6379677  34.4478457  44.9240442  14.0536892  34.9528488  45.3306306
  14.2349772  34.2220843  44.1837034  14.4918981  34.4886705  44.8745467
  10.1923705  40.1633218  51.7264114   9.7091284  40.8883707  51.7023697
  11.0047024  40.4609348  51.8374271  10.2414453  40.3135571  51.7391393
  16.2637860  38.9565398  54.3313928  15.7464801  38.5972813  53.7275236
  16.9612251  38.4327573  54.3419994  16.2903441  38.8263086  54.2444187
  19.9201452  39.4060212  60.2930101  20.0084797  39.2186353  61.1408311
  20.3491164  38.7597642  59.8934948  19.9963554  39.2823220  60.3601853
  17.4871911  38.6891372  59.2747763  16.9242746  38.2763982  59.7987424
  18.2492935  38.6144278  59.6940907  17.5166360  38.6168773  59.4140764
  19.0956891  30.6944109  43.4009363  19.3352895  30.9022092  42.5884706
  19.4172732  29.8901617  43.5098307  19.1794049  30.6058210  43.2969916
  14.4047182  22.6237504  47.2468901  15.1593150  22.9915821  47.0085951
  14.2274716  22.9977059  48.0148080  14.4901660  22.7335692  47.3253789
  13.0467903  40.6789394  51.8784393  13.7488482  40.1641383  51.9357150
  12.9665386  41.0063545  52.6831268  13.1391663  40.6503620  52.0057186
  27.6982080  28.7731945  55.2916440  26.8610501  28.8434132  55.5264034
  27.6670311  28.7756440  54.4190742  27.5700363  28.7842172  55.1975988
  14.0946809  30.9164980  61.0064808  14.2667313  30.8070875  61.8550090
  14.6316167  31.5619386  60.7696001  14.1991813  30.9956982  61.0969905
  12.7604246  25.0307823  43.9447014  12.5779819  25.2479704  43.1188006
  13.6229859  25.1446836  44.0005628  12.8608836  25.0797721  43.8301501
  12.3718678  36.8695746  51.3870001  13.2107578  37.1018678  51.4343763
  12.4030447  36.0000057  51.3177037  12.5000396  36.7752692  51.3834646
  12.9971381  37.2896621  55.6883307  13.5369606  37.1467752  56.3586679
  12.3141327  37.6893372  56.0567333  12.9763535  37.3276292  55.8417729
  18.4403965  22.0334234  46.9796037  19.1690126  21.8550189  46.5334194
  18.5298858  22.8752314  47.1903215  18.5610627  22.1318112  46.9449555
  22.4212266  32.9687621  50.8828331  23.1769781  33.4019136  50.9217240
  22.5274591  32.3192391  51.4562967  22.5482437  32.9365105  50.9726357
  20.0321511  38.8369231  62.9573885  20.8161927  38.9500079  63.3229627
  19.8318105  38.0110369  63.1532570  20.1187536  38.7315951  63.0408271
   8.4008526  33.5096912  55.8417728   8.1346941  32.6936028  56.0008719
   8.4147090  33.5550067  54.9713244   8.3633249  33.3953816  55.7371210
  25.3789920  23.8374726  53.8760162  26.0215829  23.9072831  54.4622077
  25.6312941  23.1703949  53.3739704  25.5112052  23.7501075  53.8887441
  12.3066273  28.3081996  42.4569487  11.5924450  28.0220175  42.8691919
  12.7910242  28.6478622  43.0975874  12.2725637  28.3163646  42.6125121
  13.1507133  27.0475290  58.4884736  12.4578929  26.5772270  58.7345468
  13.7667460  26.8213594  59.0626443  13.1391663  26.9442422  58.6093889
  20.1891904  40.7479333  56.6040340  19.3907150  40.5078834  56.8614209
  20.6377916  40.7993726  57.3507388  20.1366515  40.7201725  56.7525264
  19.4813591  36.8111950  42.8331295  19.8964740  36.4796974  42.1415791
  18.6505521  36.5780852  42.7051431  19.4201600  36.7283206  42.7122142
   8.8101940  34.2955691  53.1229473   8.6277513  34.2702577  52.2701765
   9.5451609  34.7654629  53.1618381   8.8916004  34.3617053  53.0027391
  24.8801614  34.5307201  50.2662360  25.1157203  34.6752400  49.4389211
  25.0291178  35.2949609  50.6593874  24.9367417  34.6646255  50.2025964
  11.8747692  31.0140694  59.6311581  12.5987664  30.9993724  60.1176476
  11.9763828  31.7236049  59.1333550  11.9965901  31.1165397  59.6290368
  26.7092071  33.3708867  48.1031964  27.0400288  33.9036507  47.4972059
  27.2825159  33.4247755  48.7593915  26.8425750  33.4578436  48.1109746
  19.2492641  34.4939778  64.4960528  18.4565622  34.8083290  64.6813148
  19.3641568  34.7091247  63.6581313  19.1488052  34.5723615  64.3998863
  21.9223960  31.2173770  48.7855544  22.0170814  31.9563064  49.2395170
  21.2982803  30.7891245  49.2190109  21.8432990  31.2635090  48.9163692
  20.1776434  34.3959982  59.4345825  20.7515295  33.7587226  59.5894389
  20.0991238  34.3964065  58.5655483  20.2509669  34.3025094  59.3292236
   8.7772850  31.1749192  53.2728539   9.3546353  31.0385642  53.9120785
   8.0786912  30.7184976  53.5274124   8.7593872  31.0871458  53.4050829
  22.1746981  33.0622509  42.0192496  22.0927144  33.1324696  42.8847483
  22.8126702  33.6252253  41.8276237  22.2566819  33.1561480  42.1182446
  15.5340152  32.8283247  51.4867023  15.2759397  31.9954982  51.4598322
  15.5888635  33.0540860  50.6459523  15.5039930  32.7381019  51.3587159
  20.6141203  24.9311698  51.5871115  19.9097529  24.4420883  51.7455034
  20.6626177  24.9434172  50.7159560  20.5171254  24.8601346  51.4810455
  14.5074865  30.3821010  51.9731917  13.9324456  30.5413178  52.6095878
  14.1310541  29.7456419  51.5100368  14.3677677  30.3118823  51.9986476
  18.1748153  28.8544359  56.8324296  17.7862586  28.4298577  56.1776487
  17.5102852  29.1026509  57.3401322  18.0195081  28.8283080  56.8112164
  27.8171422  28.6119364  49.6072126  27.5607987  27.7999305  49.4170009
  28.6600736  28.6196931  49.3802313  27.9037448  28.4931361  49.5456943
   4.2531683  30.0261085  49.9876358   4.3391935  29.6492953  50.7689888
   4.8807481  29.6521530  49.5096316   4.3588234  29.9146567  50.0321835
  21.9974515  22.5518988  54.3448280  22.3785027  21.8697159  54.7316154
  21.1937799  22.2628590  54.1623944  21.9350976  22.4086036  54.3752336
  19.2787091  33.0842964  45.0301103  20.0927730  33.3757856  44.9183874
  19.2146233  32.4302826  44.4559396  19.3889830  33.0308158  44.9289940
  25.4996582  35.7668960  59.4430678  25.2635219  34.9357025  59.3242739
  26.1439811  35.7154567  60.0285523  25.5591252  35.6366648  59.5116572
  15.1495000  36.5564481  50.1573415  15.7868947  36.3176229  50.7025208
  15.5750071  36.7601640  49.4226575  15.3071166  36.5515491  50.1290572
   9.8407642  38.7952818  54.0407719   9.8811787  39.0667669  53.2127498
  10.4002166  39.3194726  54.4565506   9.9290988  38.9128573  53.9799607
  15.7897815  31.7766771  44.4948304  16.1742967  31.5574478  45.2464849
  15.5409435  32.6029716  44.6249381  15.8099887  31.8664917  44.6249381
  15.9566355  25.0573186  64.2110888  15.6419796  25.8272749  63.9480451
  15.6356288  24.4943442  63.6263115  15.8625274  25.0883455  64.0852238
  17.5316472  37.0336904  51.8367201  17.6055480  36.8712076  52.6909051
  18.3485978  37.2227093  51.5927683  17.6632830  37.0373646  51.9265227
  11.2922228  37.3794767  48.8661645  10.4660346  37.6256504  48.7395923
  11.3534220  37.3006847  49.7323703  11.1796395  37.4039716  48.9750589
  13.5098252  23.4463708  49.8257085  12.6420678  23.5186307  49.8914694
  13.7973456  24.2485786  50.0145060  13.4238000  23.5757855  49.8631851
  22.6331141  23.5941567  58.1568407  23.3784733  23.4051377  57.7431832
  22.2168445  24.1199805  57.5982263  22.6816115  23.6443712  58.0132980
  16.0721057  39.9971647  46.5680674  16.3619356  39.6060628  45.8439901
  16.8024538  40.1788352  47.0085950  16.2227942  39.9665461  46.5263481
  16.6615803  34.7989393  57.6533805  16.1627496  35.5105160  57.7318693
  17.4716027  35.1190059  57.6151967  16.7071909  34.9516241  57.6590373
  14.0126973  41.9739029  49.6340824  13.7927268  41.6836384  50.4267491
  13.7921495  41.3153984  49.1058736  13.9474567  41.8338738  49.6729733
  12.9243920  34.0612346  51.8996526  12.6357169  33.4349817  52.4342253
  13.7927268  34.0032633  51.9661206  13.0104172  33.9599890  51.9887480
  23.7121818  29.2047129  52.2178508  23.3686584  28.4837464  52.5685757
  23.8114861  28.9960980  51.3756866  23.6763861  29.0671332  52.1450188
  16.1794929  43.3468419  48.4171517  16.8318987  42.8144861  48.6462543
  15.4820537  42.9937071  48.8039391  16.1725647  43.2157942  48.5083684
  13.1276194  35.7007597  47.8238891  13.8822162  36.0820636  48.0374353
  12.5346806  36.1518740  48.2785587  13.1512907  35.8236424  47.9221769
  15.5882861  27.6570437  62.9496103  14.7782636  27.9628217  62.8385945
  16.0657547  28.3776019  63.0648687  15.5386339  27.8085038  62.9503174
  14.4474420  36.8716158  53.1979006  13.9255174  37.0116450  53.8830871
  14.8348440  36.1126822  53.3881124  14.4278121  36.7801682  53.3280083
  11.4365604  26.9221967  47.2673961  11.1490400  26.5523237  46.5305908
  12.1236072  27.3916822  47.0057666  11.4954501  26.9368936  47.1189037
  20.6441425  38.6111617  47.1839575  20.4028101  37.8779478  46.7766640
  20.8242758  39.1598474  46.5305908  20.6349049  38.5834008  47.0269798
  15.8740746  33.9020177  48.5960497  15.6783528  34.5094912  48.0020800
  16.0975091  33.2088121  48.1152171  15.8775387  33.8897703  48.4376578
  14.2719276  30.7874915  48.7141366  14.9941928  30.9516073  48.2545172
  13.7927269  31.5084580  48.6080705  14.3083006  30.9173145  48.6306980
  22.2312783  27.1238714  54.0938051  21.3923884  27.1499993  53.8576314
  22.3017151  27.7709449  54.6743397  22.1181177  27.2234840  54.1447167
  11.9226892  33.1932987  57.8195506  12.4347989  33.4717241  57.1704265
  11.6363235  33.9322282  58.1858319  11.9561756  33.3435341  57.7785384
  20.6782062  24.0224091  48.8265667  21.3808414  23.8231839  48.3485625
  20.4126250  23.2500033  49.1334510  20.7428694  23.8787057  48.8011108
   9.0093799  27.7003179  48.1159242   9.1109935  28.5029341  48.4440217
   9.8049686  27.4990515  47.8182323   9.1421704  27.7889078  48.1194597
  15.4410618  25.2859376  57.8796547  15.2493815  25.3014510  58.7295971
  16.2909214  25.4823050  57.8563202  15.5386340  25.3173727  58.0019842
   9.8257531  27.8150358  55.8580364   9.6843023  26.9634298  55.9824872
  10.1098094  27.8579018  55.0342570   9.8465377  27.6950108  55.7547988
  19.9796123  29.6517448  50.0024852  19.7330838  29.5713199  50.8361641
  20.3081246  28.8670916  49.8087379  19.9917367  29.5243713  50.0972375
  23.8744172  36.3600807  53.7911633  23.7358531  37.0581853  54.2960375
  23.0944170  36.2049464  53.4347815  23.7387399  36.4400974  53.8137907
  22.2122257  32.6597182  60.0434015  22.2070296  31.7876999  60.0476441
  22.9183251  32.8585352  59.5703470  22.3167261  32.5601057  59.9741050
  15.9393151  32.3874166  59.4147835  16.0836526  32.9675374  58.7790945
  16.2868799  32.7650463  60.1197690  16.0120612  32.5294870  59.4246830
  18.1113068  31.5864335  57.1972967  17.3636382  31.7795349  56.7921245
  18.2654593  30.7609554  56.9597088  18.0235495  31.4929446  57.1018372
  15.0120906  40.5776938  56.2808862  15.1610469  40.0179854  55.6282266
  15.7920908  40.6568940  56.6641381  15.1494999  40.5062504  56.2405811
  25.3697545  35.7179061  44.5528132  24.9904354  34.9316199  44.5457422
  24.7063790  36.2665918  44.4099777  25.2156020  35.6823885  44.5308929
  17.5374206  40.7491581  57.5593353  17.4617877  40.0800392  58.1144141
  17.4664065  41.4509369  58.0734019  17.5154813  40.7536488  57.7170201
  18.3514845  25.4814885  58.0868370  18.8087459  26.2138860  58.2141162
  18.4271174  25.0581351  58.8455626  18.4305815  25.5272123  58.2169447
  10.5947836  25.7280705  59.1757814  10.0590026  25.1161063  59.4918581
  10.6565601  26.3028841  59.8291481  10.5243469  25.7227633  59.3193241
  22.8242171  18.6604761  51.9562213  22.9425739  19.1181224  51.2229516
  22.6504347  17.8550022  51.6698431  22.8161342  18.6098533  51.8063147
  18.1944453  39.2692580  48.3916959  18.9594344  39.0002224  48.0699623
  18.0922543  38.7842590  49.1087021  18.2925949  39.1582145  48.4496786
  16.2297223  27.4716989  54.9310194  15.4393298  27.2908449  55.2527530
  16.6257846  26.6943942  54.9140489  16.1714099  27.3304450  54.9762743
  21.6140909  35.1059419  52.6569640  20.9385911  34.8744652  53.1583027
  21.6233285  34.4980602  52.0311745  21.5159414  34.9818345  52.6385792
  18.7435053  29.9477248  59.4133693  18.6794194  30.8087205  59.2853830
  18.8832241  29.6309242  58.6129244  18.7550523  30.0277415  59.2761906
  17.4254147  32.6409388  53.5549896  17.0016396  32.8413887  52.8188914
  17.2499002  31.7938236  53.6674196  17.3365028  32.5458169  53.4623586
  16.9265840  44.1559901  56.0171353  17.4161771  43.4570690  55.8347018
  16.3550073  43.8583771  56.6047411  16.9150370  44.0086124  56.0772394
  12.7136592  33.1361439  48.9877869  12.8701211  33.0708242  49.8433861
  13.0537185  33.9109992  48.7756548  12.7869827  33.2410637  49.0832463
  19.2515737  32.5119323  47.8571232  19.7931282  32.0089704  48.3209852
  19.5662296  32.4584517  47.0460717  19.3780134  32.4298744  47.8055044
  23.1232844  36.7221970  64.9698144  23.9367709  36.4507119  65.1303277
  22.9627810  36.4229510  64.1658340  23.2202792  36.6376896  64.8743550
  17.4202186  37.9036674  45.1411260  17.4895007  37.0451213  45.2804260
  18.1990641  38.1208555  44.8130284  17.5455036  37.8089538  45.1128417
  20.4005006  27.4055627  57.9093532  20.6146976  26.7666542  57.3556886
  19.7838905  27.8501451  57.4801394  20.3410335  27.3765771  57.7643963
  21.8109674  40.3274376  49.3547753  21.4189466  40.0241091  48.6370619
  21.9662746  41.1643466  49.1652707  21.7763264  40.4058212  49.2204250
   9.2870853  30.3196390  49.3038636   9.6669818  30.7380935  48.6398903
   8.7126218  30.9009845  49.6107479   9.2582178  30.4674248  49.2515377
  22.5644094  29.0144692  58.8476839  21.7520776  28.7070583  58.9290012
  23.0234029  28.5343693  59.4119552  22.5124479  28.8981185  58.9431434
  19.7919735  20.5155563  52.8980875  18.9213293  20.4894284  52.8514185
  20.0460076  20.3432755  52.0806721  19.7013295  20.4865707  52.7701012
  16.7637714  32.5723530  41.8354018  17.0530239  33.3488412  42.1097592
  16.8509513  32.0612261  42.5368517  16.8191970  32.6115448  41.9796516
  19.6597601  30.4204764  63.6305542  20.1297233  31.0446880  64.0173416
  19.7059482  29.7521739  64.1898756  19.7365477  30.4139444  63.7705613
  16.8168875  22.5261791  54.3554345  16.3007364  21.8341983  54.4805924
  16.2562804  23.1932568  54.3016944  16.6575388  22.5225049  54.3660411
  18.8861109  23.0654751  56.1847198  18.4992862  23.0903783  56.9660728
  18.3994046  22.4996430  55.7321715  18.7573617  22.9850502  56.2335102
  23.1354088  37.7828260  60.2420985  23.7733809  37.2888456  59.9083441
  22.4928180  37.7105661  59.6573211  23.1348315  37.6987269  60.1063340
  24.8611088  29.6317406  54.8086900  24.4338696  29.5443755  54.0535000
  24.2237141  29.7395182  55.3941744  24.7040695  29.6350066  54.7832342
  18.5518250  19.9521737  58.4757458  19.1811368  20.4882037  58.1978528
  18.7204113  19.8599096  59.3271024  18.6696045  20.0183099  58.5605986
  18.3532165  24.7392932  60.7483870  19.1805595  24.4678081  60.8042484
  18.3740011  25.5353773  61.1047688  18.4785015  24.8172686  60.8099052
  23.1908345  38.4748069  56.8826341  23.9800723  38.1237133  57.0028423
  23.3651942  39.2884457  56.6202975  23.3328626  38.5433926  56.8614209
  12.9301655  31.8856794  53.9354130  12.0889662  31.7860669  54.1433024
  13.1391663  32.6552275  54.2868451  12.8366348  31.9848838  54.0181445
  10.4077222  29.5076331  51.7638881  10.0133920  29.5819343  50.9888991
   9.8517339  29.8934278  52.3147243  10.2680034  29.5758106  51.7306541
  22.0442169  22.4857625  51.4442760  22.2491762  22.4179933  52.2899757
  21.7168593  23.2916447  51.3763937  22.0257417  22.5943566  51.5602415
  16.7418320  29.8138194  53.1851728  16.4381457  29.2594182  53.7862135
  16.0397741  29.9930404  52.6979762  16.5934530  29.7582976  53.2021433
  15.7984417  27.1238713  47.7496430  16.0744151  26.4057626  47.3373997
  16.3983086  27.7223633  47.5417536  15.9277682  27.1059084  47.6577191
  14.8036671  37.0287914  57.8923826  14.6957026  37.0389976  58.7585884
  15.0132452  37.8542695  57.7028779  14.8186782  37.1528989  57.9927917
  25.2975856  23.0389390  50.9245525  24.6850170  23.5259792  51.3099257
  25.3940031  22.3632881  51.4683176  25.2213754  23.0107698  51.0624383
  19.2994937  24.7952231  46.0243025  19.7538684  24.9662791  46.7490869
  19.7734983  24.1820341  45.6240800  19.4363258  24.7303116  46.0716786
  12.8210463  34.2800557  55.3545763  12.2298396  34.9210055  55.3248778
  13.5831486  34.7038174  55.3277063  12.8458724  34.4376395  55.3460910
  13.2171086  25.4402554  56.0213781  13.6772567  25.5141484  56.7588904
  13.2627192  26.2383809  55.6713602  13.2921641  25.5696702  56.0786537
  14.8654435  26.1069249  60.5885808  14.4740001  25.4602596  61.0241586
  15.0340298  26.6980685  61.2080063  14.8325346  26.0983517  60.7448514
  22.5799979  39.7309868  52.7877788  22.3819668  40.2200683  52.0933999
  21.9587690  39.9351110  53.3661921  22.4587544  39.8326407  52.7701011
  16.6407957  31.4994765  47.1288032  17.3850002  31.8869041  47.3670982
  16.7868654  30.6552191  47.2928520  16.7718543  31.4325238  47.1882002
  18.5587533  23.2945024  52.1619893  17.7123578  23.4667832  52.0361243
  18.5558665  22.4894368  52.4985722  18.4334683  23.2006053  52.1931020
  19.6285833  27.0720238  53.0281951  19.1545788  26.5462000  53.5387262
  20.0003969  26.5249711  52.4596813  19.6135722  26.9136235  53.0197098
  10.0058863  29.0691745  58.3965497  10.8684477  28.9687454  58.3102827
   9.6750646  28.4886454  57.8351069  10.0844060  28.9683372  58.3010903
  21.5569333  27.9656793  46.0907705  21.0292352  28.0485537  45.4013414
  22.0165041  28.7074664  46.0872350  21.5471183  28.0877455  45.9882400
  24.4973781  33.2974021  58.3223036  25.2207980  32.8446547  58.1434056
  24.2323743  33.5778686  57.5395364  24.5655054  33.2724989  58.1801751
  13.3660649  27.8934194  55.0575915  12.7413720  27.9052586  54.4501868
  13.0306244  28.3694369  55.7067155  13.2246141  27.9652711  55.0632484
  13.5502398  26.2359313  41.1148600  13.2015202  26.8879038  41.5780149
  13.0698844  26.2216426  40.3872471  13.4272642  26.3302366  41.0759691
  10.0786325  35.9534654  56.4979679   9.5486250  35.2627093  56.5474654
  10.3511418  35.9444840  55.6692388  10.0411047  35.8501786  56.3827095
  21.1106415  36.5360357  45.2217362  21.8340614  37.0018470  45.0781935
  20.6707007  36.6033966  44.4714959  21.1522108  36.6144193  45.0902143
  20.2792571  33.3957899  56.4718051  19.6649564  32.8515949  56.7666686
  20.7959856  32.8822135  55.9923867  20.2648233  33.2394308  56.4442279
  19.5188868  34.4662169  54.2062350  19.0916476  33.8411888  53.7727785
  19.5113812  34.1837091  55.0321357  19.4548009  34.3314950  54.2642177
  12.6351395  29.5027342  57.2750784  12.7944882  28.7470666  57.6802506
  12.4544288  30.0518281  57.9291521  12.6316754  29.4721156  57.4313490
  20.5771698  21.6688578  57.8301573  20.0812259  21.8652252  57.1393140
  21.3340760  22.0681246  57.6590375  20.6158523  21.7566311  57.7021710
  17.8474577  25.3430923  54.4204884  17.8717065  24.8091036  53.7317664
  18.0986051  24.8348232  55.0830474  17.8884496  25.1891827  54.4169528
   5.3582167  32.6262418  53.8548028   5.2525616  32.5809263  52.9900112
   4.6082387  32.9716199  54.1362313   5.2317770  32.6703327  53.7685357
  14.1275900  24.0701742  53.8010628  14.1674271  24.5710948  54.5145335
  13.3025564  24.1612135  53.5316551  14.0115426  24.1583558  53.8661166
  16.3105513  33.6362482  61.9030923  15.4601143  33.7734196  62.0388567
  16.4733640  32.9026260  62.3478624  16.2089376  33.5476583  61.9886522
  15.5490263  30.5862251  56.0984527  14.7182193  30.7536069  55.8919775
  15.4941780  30.2098202  56.8833412  15.4179678  30.5551983  56.1833055
  13.3574046  24.0771144  61.7340938  13.9826750  23.5333277  62.0070370
  12.9024526  23.5966062  61.1648728  13.3822307  23.9260626  61.6902531
  13.9226307  28.8617843  46.6274645  14.0629268  29.3590307  47.3303286
  14.4208840  28.1604137  46.7688858  14.0167388  28.8319822  46.7526224
  13.9526529  29.7284954  43.9567221  14.5871609  30.3245379  43.8916683
  14.0352140  29.4288412  44.7713092  14.0583080  29.7725862  44.0670308
  26.9309095  32.2600431  56.8253586  27.5226935  32.8997682  56.8571784
  27.3668090  31.5623468  57.1145652  27.0827526  32.2518782  56.8734418
  15.5305512  25.6598929  43.9312663  15.8521353  25.1802012  43.2771926
  15.7932456  26.4698576  43.7403475  15.6171538  25.7088827  43.8068156
  18.7602485  36.6817804  57.4511480  18.2527576  37.2353651  57.8952110
  18.4629131  36.7426094  56.6330254  18.6407370  36.7724115  57.3959936
  20.9264667  25.0471123  56.2936143  21.3519739  24.5943650  55.6819669
  20.3121660  24.4931194  56.5700930  20.8993312  24.8985100  56.2441168
  10.4579517  31.9252795  47.2256767  10.9671746  32.5217302  47.6068073
  10.9313789  31.6578768  46.5433187  10.6022893  31.9738610  47.1811290
  21.3710265  40.5981062  45.3815423  20.6539575  40.4241924  44.9162660
  22.0217003  40.3633634  44.8490909  21.3612116  40.5376854  45.2344641
  19.3658890  21.5186223  49.7026720  18.7227208  21.3683870  50.2711858
  19.0258297  21.2728568  48.9375824  19.2203967  21.4598346  49.6729735
  23.9558236  29.4745650  49.1256728  23.2849426  30.0175352  48.9969794
  24.6497987  29.9440505  48.8838423  23.9587104  29.6243921  49.0712256
  18.0044970  41.6142362  54.3568486  17.7810625  40.8561191  54.7252513
  17.5154813  41.6440383  53.6348926  17.8988419  41.5064587  54.3045227
  24.1186364  25.9301534  52.0347101  24.4713974  25.5031257  52.7092900
  23.2601165  25.8452377  52.1648178  24.0435809  25.8546274  52.1542112
  12.8170049  28.5609053  50.0929948  12.0982038  28.9773186  50.3602811
  13.1882411  29.1263292  49.5421586  12.7661981  28.7058335  50.0512755
  22.1169630  29.1936902  55.9831944  22.0967557  29.0120197  56.8366722
  22.1648830  30.0648921  55.9591527  22.1204271  29.2953441  56.1055238
  20.0615960  35.7824094  61.9080420  20.0211814  35.1373771  61.3225576
  20.8739278  35.7260712  62.2205832  20.1759113  35.6783061  61.8677369
  16.6523427  41.8342820  51.8105571  16.2383826  41.1716950  51.4209413
  17.3370801  41.9820679  51.2901265  16.6921799  41.7583478  51.6762068
  20.0188721  40.9932905  52.5629188  19.6205004  41.1035176  51.7950008
  19.4039941  41.2014972  53.1455747  19.8687611  41.0406473  52.5360487
  18.5916623  27.6007053  45.4303327  17.9981463  27.9224050  44.8787894
  18.6291901  26.7548149  45.2224433  18.5091012  27.5231382  45.3186099
  25.5510424  21.0519946  52.9631414  25.0441289  20.3449085  52.8952591
  26.3477858  20.7213134  53.0932490  25.5937663  20.8993097  52.9730409
  21.4674440  27.5586558  48.8605078  21.2388133  27.5819259  48.0183436
  21.7272516  26.7344025  48.9800088  21.4720628  27.4402638  48.7530275
  15.7493668  29.4121031  58.4630178  15.2372571  28.8042214  58.8215209
  15.5773164  30.1277623  58.9304154  15.6483305  29.4284330  58.5846401
  10.5959383  27.8558606  61.1132540  10.4261973  28.5159981  60.5680746
  10.1525333  28.0665167  61.8345029  10.5058717  27.9844588  61.1394169
  14.5219202  26.0963104  50.1559273  14.9976569  26.4580184  49.5209454
  14.0207802  26.7519572  50.4359416  14.5184561  26.2457293  50.1036014
  27.7530564  35.5684872  45.9472278  28.1364170  36.3176228  46.1770375
  26.9574677  35.8150692  45.6884267  27.6924346  35.7154566  45.9429852
  19.6262739  27.3345275  60.9032433  20.1834169  27.1059085  60.2710899
  19.3023804  28.0950941  60.6267646  19.6609149  27.4129112  60.7688930
   7.4961447  30.7605472  56.3721029   6.9488167  30.0906117  56.4901898
   8.2853826  30.3935320  56.4364497   7.5313631  30.6070458  56.3989730
  17.3445856  30.4212929  61.8684440  18.0957183  30.7364606  62.1823995
  17.5368432  30.2192100  61.0418362  17.4837270  30.4380311  61.7927836
  16.5645855  28.2404304  43.5232657  16.9444820  28.2583933  42.7383772
  15.8238452  28.6858293  43.4023505  16.5114693  28.3086079  43.3896225
  24.1931146  26.5486495  49.1108236  24.1925372  26.3935152  49.9692512
  23.9887326  27.3949482  49.0549622  24.1630924  26.6507116  49.2296175
   6.2548417  29.9726280  53.5267052   6.0770178  29.5202888  54.2521968
   5.9667439  30.7752441  53.7105530   6.1861370  30.0248837  53.6610555
  21.9171998  31.2283997  52.7644443  22.4125663  30.5106992  52.7248463
  21.1071774  30.9254795  52.6498930  21.8715891  31.0781643  52.7418169
  17.3630610  35.0781810  44.9141447  16.5541932  34.7548484  44.8674757
  17.8705518  34.3715032  44.8469696  17.3180276  34.9263126  44.8971742
   7.9920887  32.5054003  50.6388812   7.1266406  32.4939694  50.5271583
   8.0919703  32.3184226  51.4859951   7.8795054  32.4760064  50.7477756
  23.9823817  33.9787684  55.4521572  24.4078888  33.4562106  54.8991997
  23.6180737  34.5768522  54.9310195  23.9910419  33.9897911  55.2930581
  13.6177897  42.2751902  54.2118917  13.9324456  43.0888290  54.2196699
  14.0271310  41.8902121  54.8801076  13.7245995  42.3380604  54.3123009
  20.5702416  37.6921949  51.7822729  21.0413595  38.4062211  51.9512714
  20.9062595  37.0920699  52.3182599  20.6897531  37.7093413  51.8855105
  22.6579401  39.3023262  63.9614801  22.7676366  38.5131823  64.3171548
  22.9870298  39.2129198  63.1589139  22.7231807  39.1729115  63.8957192
  17.4871911  22.4649419  58.7380824  17.6199817  21.6680413  59.0661799
  17.8717064  22.9915822  59.3179099  17.5628240  22.4249336  58.8724327
  21.2076363  37.4839883  58.5450422  20.6597309  36.8597766  58.2770487
  21.6689391  37.6734155  57.8294501  21.1943572  37.4198933  58.4000853
  20.5604266  19.3879745  55.3361917  19.7550230  19.2777475  55.6529755
  20.4311002  19.4892201  54.4791783  20.4224399  19.3863415  55.2569957
  24.0170227  25.5525237  55.9301614  23.4333216  26.0534444  55.5179181
  24.3374521  25.0454793  55.2965937  23.9783402  25.5517072  55.7760121
  16.5565026  24.4665832  46.2060289  17.3780721  24.6364145  45.9641984
  16.0934677  24.6213093  45.4826586  16.6096188  24.5147565  46.0631933
  15.1460358  22.4608594  56.9858718  15.6904771  22.1199721  57.5763059
  15.1997294  23.3194056  57.1280002  15.2349477  22.5363854  57.0940591
  10.9590917  36.2225010  53.8597525  11.5635774  36.1820844  53.2311346
  10.7518229  37.0696162  53.8901581  11.0179814  36.3413013  53.7713642
  20.7734689  38.4890955  55.0759763  21.5933063  38.3453922  55.3376058
  20.4928767  39.1137154  55.6176201  20.8531432  38.5601308  55.1947702
   6.1942199  35.2059628  53.7296449   6.0966477  34.3955899  54.0386505
   6.9771069  35.1851421  53.3442717   6.2958336  35.0826718  53.7183312
  30.4448024  45.2331458  52.7955570  29.5885920  45.3939956  52.8464686
  30.4915678  44.3623522  52.8160631  30.3247136  45.1282260  52.8061636
  24.8289164  54.7694176  48.5592801  24.0772063  54.3909714  48.3308846
  25.2775176  54.8012610  47.8111612  24.7838831  54.7179783  48.4150303
  33.7541741  51.5017984  62.4016026  34.4608508  51.0070015  62.5302960
  33.9429676  51.9427065  61.6718684  33.8869646  51.4936334  62.3125071
  30.2814124  55.1919546  43.9878348  29.9465492  55.8696467  43.5522570
  30.7940994  54.8024857  43.3995220  30.3079705  55.2344124  43.8365140
  29.8218415  57.1433814  49.9289460  30.2057794  57.7120713  49.3894235
  29.7577556  56.4183325  49.4495276  29.8691842  57.1209278  49.7783322
  33.2899845  47.2923502  55.4387221  33.8355805  47.9708589  55.4981191
  33.2316722  47.1510963  54.5788803  33.3615760  47.3715504  55.3199282
  26.4073920  54.7812568  50.8255574  26.5084283  53.9712922  51.1352701
  25.8115665  54.6869515  50.1955252  26.3346459  54.6477596  50.7781812
  26.2474660  59.6990157  52.2270430  26.8912115  60.1403321  52.6166588
  26.5730915  58.8943584  52.1400689  26.3906488  59.6455352  52.2715907
  19.6038964  50.8032855  50.4507907  19.3689149  49.9700507  50.3440176
  19.7424605  51.0837520  49.6369108  19.5894627  50.7216358  50.3150262
  21.9029052  42.9718585  53.3492215  21.2834083  42.3811233  53.1802230
  21.8012915  43.5630021  52.7156538  21.7966727  42.9722668  53.2297205
  26.9495239  52.7102132  47.5990291  27.2711080  53.2507340  46.9951600
  27.5967336  52.1398904  47.7312581  27.0921295  52.7061307  47.5297327
  21.6298185  46.5170867  55.5935784  21.5056882  47.1033313  56.2285603
  22.2816469  46.0231063  55.8948059  21.7071834  46.5309672  55.7321713
  29.1884883  51.0988572  47.6704470  29.6278518  50.4905673  48.1159242
  29.0389546  50.7195946  46.8989935  29.2306349  50.9527043  47.6223637
  26.6556526  49.6932584  54.8723295  27.3005528  49.2005027  54.5534244
  26.8958303  49.8357371  55.6989373  26.7867111  49.6410026  54.9472828
  29.1942617  52.5387490  54.5230188  29.4765860  51.7438896  54.3016944
  29.9228778  53.0168077  54.5435249  29.3432181  52.4922087  54.4933203
  32.7894219  49.4515753  44.6235239  32.7045515  50.3076720  44.7684808
  33.2778603  49.1760078  45.2917398  32.8483117  49.5373075  44.7437320
  25.6112260  49.9663764  44.9240442  25.0269476  50.4713796  45.3306306
  25.2082356  49.7406151  44.1837034  25.4651564  50.0072013  44.8745467
  21.1656289  55.6818526  51.7264114  20.6823867  56.4069015  51.7023697
  21.9779607  55.9794656  51.8374271  21.2147037  55.8320879  51.7391393
  27.2370443  54.4750706  54.3313928  26.7197385  54.1158121  53.7275236
  27.9344834  53.9512881  54.3419994  27.2636024  54.3448394  54.2444187
  30.8934035  54.9245520  60.2930101  30.9817381  54.7371661  61.1408311
  31.3223748  54.2782950  59.8934948  30.9696137  54.8008528  60.3601853
  28.4604495  54.2076680  59.2747763  27.8975330  53.7949290  59.7987424
  29.2225518  54.1329586  59.6940907  28.4898943  54.1354081  59.4140764
  24.0200486  56.1974701  51.8784393  24.7221066  55.6826691  51.9357150
  23.9397969  56.5248853  52.6831268  24.1124247  56.1688928  52.0057186
  25.0679393  46.4350288  61.0064808  25.2399897  46.3256183  61.8550090
  25.6048750  47.0804694  60.7696001  25.1724397  46.5142290  61.0969905
  23.3451262  52.3881053  51.3870001  24.1840161  52.6203986  51.4343763
  23.3763031  51.5185365  51.3177037  23.4732979  52.2938000  51.3834646
  23.9703965  52.8081929  55.6883307  24.5102190  52.6653060  56.3586679
  23.2873911  53.2078679  56.0567333  23.9496119  52.8461600  55.8417729
  33.3944850  48.4872929  50.8828331  34.1502365  48.9204444  50.9217240
  33.5007174  47.8377699  51.4562967  33.5215020  48.4550413  50.9726357
  36.4325021  52.3146207  51.6330734  35.9960253  52.3182949  52.3889706
  36.0987936  52.9951706  51.2010312  36.3187641  52.4158662  51.6811567
  31.0054094  54.3554539  62.9573885  31.7894511  54.4685387  63.3229627
  30.8050689  53.5295676  63.1532570  31.0920120  54.2501259  63.0408271
  19.3741110  49.0282219  55.8417728  19.1079525  48.2121336  56.0008719
  19.3879674  49.0735375  54.9713244  19.3365832  48.9139124  55.7371210
  24.1239716  42.5660598  58.4884736  23.4311513  42.0957577  58.7345468
  24.7400044  42.3398902  59.0626443  24.1124246  42.4627730  58.6093889
  31.1624488  56.2664641  56.6040340  30.3639733  56.0264141  56.8614209
  31.6110499  56.3179034  57.3507388  31.1099099  56.2387033  56.7525264
  30.4546175  52.3297258  42.8331295  30.8697323  51.9982282  42.1415791
  29.6238104  52.0966160  42.7051431  30.3934183  52.2468514  42.7122142
  19.7834523  49.8140999  53.1229473  19.6010097  49.7887885  52.2701765
  20.5184192  50.2839937  53.1618381  19.8648587  49.8802361  53.0027391
  22.8480275  46.5326002  59.6311581  23.5720247  46.5179032  60.1176476
  22.9496412  47.2421357  59.1333550  22.9698484  46.6350705  59.6290368
  30.2225225  50.0125086  64.4960528  29.4298205  50.3268598  64.6813148
  30.3374152  50.2276555  63.6581313  30.1220635  50.0908923  64.3998863
  31.1509017  49.9145290  59.4345825  31.7247879  49.2772534  59.5894389
  31.0723821  49.9149373  58.5655483  31.2242252  49.8210402  59.3292236
  19.7505434  46.6934500  53.2728539  20.3278936  46.5570950  53.9120785
  19.0519496  46.2370284  53.5274124  19.7326455  46.6056766  53.4050829
  26.5072736  48.3468555  51.4867023  26.2491980  47.5140290  51.4598322
  26.5621219  48.5726168  50.6459523  26.4772514  48.2566326  51.3587159
  25.4807448  45.9006318  51.9731917  24.9057039  46.0598486  52.6095878
  25.1043124  45.2641727  51.5100368  25.3410260  45.8304131  51.9986476
  29.1480737  44.3729667  56.8324296  28.7595170  43.9483885  56.1776487
  28.4835435  44.6211817  57.3401322  28.9927665  44.3468388  56.8112164
  15.2264267  45.5446392  49.9876358  15.3124519  45.1678261  50.7689888
  15.8540064  45.1706838  49.5096316  15.3320818  45.4331875  50.0321835
  30.2519675  48.6028272  45.0301103  31.0660314  48.8943164  44.9183874
  30.1878816  47.9488134  44.4559396  30.3622414  48.5493466  44.9289940
  36.4729165  51.2854268  59.4430678  36.2367803  50.4542332  59.3242739
  37.1172394  51.2339875  60.0285523  36.5323836  51.1551956  59.5116572
  26.1227583  52.0749789  50.1573415  26.7601530  51.8361537  50.7025208
  26.5482655  52.2786948  49.4226575  26.2803750  52.0700799  50.1290572
  20.8140226  54.3138126  54.0407719  20.8544371  54.5852977  53.2127498
  21.3734750  54.8380034  54.4565506  20.9023572  54.4313881  53.9799607
  26.9298939  40.5758494  64.2110888  26.6152380  41.3458057  63.9480451
  26.6088871  40.0128750  63.6263115  26.8357858  40.6068763  64.0852238
  37.4965586  51.0698716  55.5058973  37.1911403  51.8026773  55.8672288
  36.7771802  50.6636646  55.2251759  37.3452928  51.1180449  55.5172110
  28.5049055  52.5522212  51.8367201  28.5788064  52.3897383  52.6909051
  29.3218562  52.7412401  51.5927683  28.6365414  52.5558954  51.9265227
  22.2654812  52.8980074  48.8661645  21.4392930  53.1441812  48.7395923
  22.3266803  52.8192155  49.7323703  22.1528979  52.9225023  48.9750589
  24.4830836  38.9649015  49.8257085  23.6153261  39.0371615  49.8914694
  24.7706040  39.7671094  50.0145060  24.3970584  39.0943163  49.8631851
  33.6063724  39.1126875  58.1568407  34.3517316  38.9236685  57.7431832
  33.1901029  39.6385113  57.5982263  33.6548699  39.1629020  58.0132980
  27.0453641  55.5156955  46.5680674  27.3351939  55.1245936  45.8439901
  27.7757122  55.6973660  47.0085950  27.1960525  55.4850768  46.5263481
  27.6348386  50.3174701  57.6533805  27.1360080  51.0290468  57.7318693
  28.4448610  50.6375367  57.6151967  27.6804493  50.4701549  57.6590373
  24.9859557  57.4924337  49.6340824  24.7659852  57.2021692  50.4267491
  24.7654079  56.8339292  49.1058736  24.9207151  57.3524045  49.6729733
  23.8976504  49.5797654  51.8996526  23.6089752  48.9535125  52.4342253
  24.7659852  49.5217941  51.9661206  23.9836756  49.4785198  51.9887480
  27.1527512  58.8653727  48.4171517  27.8051570  58.3330169  48.6462543
  26.4553121  58.5122379  48.8039391  27.1458230  58.7343250  48.5083684
  24.1008777  51.2192905  47.8238891  24.8554745  51.6005944  48.0374353
  23.5079390  51.6704048  48.2785587  24.1245491  51.3421732  47.9221769
  35.1467431  51.1858141  47.7602496  35.7125463  51.8451351  47.6761039
  34.4995334  51.5307839  48.2318898  35.1346187  51.3340082  47.8175252
  26.5615444  43.1755745  62.9496103  25.7515220  43.4813525  62.8385945
  27.0390131  43.8961327  63.0648687  26.5118923  43.3270346  62.9503174
  25.4207004  52.3901466  53.1979006  24.8987757  52.5301758  53.8830871
  25.8081024  51.6312130  53.3881124  25.4010705  52.2986990  53.3280083
  22.4098188  42.4407275  47.2673961  22.1222984  42.0708545  46.5305908
  23.0968656  42.9102130  47.0057666  22.4687085  42.4554244  47.1189037
  31.6174009  54.1296925  47.1839575  31.3760685  53.3964786  46.7766640
  31.7975342  54.6783782  46.5305908  31.6081633  54.1019316  47.0269798
  26.8473329  49.4205485  48.5960497  26.6516112  50.0280220  48.0020800
  27.0707675  48.7273429  48.1152171  26.8507970  49.4083011  48.4376578
  25.2451859  46.3060223  48.7141366  25.9674511  46.4701381  48.2545172
  24.7659852  47.0269888  48.6080705  25.2815590  46.4358453  48.6306980
  33.2045367  42.6424022  54.0938051  32.3656468  42.6685301  53.8576314
  33.2749734  43.2894757  54.6743397  33.0913760  42.7420148  54.1447167
  22.8959476  48.7118295  57.8195506  23.4080573  48.9902549  57.1704265
  22.6095819  49.4507589  58.1858319  22.9294339  48.8620649  57.7785384
  19.9826382  43.2188487  48.1159242  20.0842519  44.0214649  48.4440217
  20.7782269  43.0175823  47.8182323  20.1154288  43.3074386  48.1194597
  26.4143201  40.8044684  57.8796547  26.2226398  40.8199818  58.7295971
  27.2641797  41.0008358  57.8563202  26.5118923  40.8359035  58.0019842
  20.7990114  43.3335665  55.8580364  20.6575606  42.4819606  55.9824872
  21.0830678  43.3764326  55.0342570  20.8197961  43.2135415  55.7547988
  34.8476756  51.8786115  53.7911633  34.7091115  52.5767161  54.2960375
  34.0676754  51.7234771  53.4347815  34.7119983  51.9586282  53.8137907
  33.1854841  48.1782490  60.0434015  33.1802879  47.3062307  60.0476441
  33.8915835  48.3770659  59.5703470  33.2899845  48.0786365  59.9741050
  26.9125734  47.9059474  59.4147835  27.0569110  48.4860682  58.7790945
  27.2601383  48.2835771  60.1197690  26.9853195  48.0480178  59.4246830
  29.0845651  47.1049643  57.1972967  28.3368966  47.2980657  56.7921245
  29.2387177  46.2794862  56.9597088  28.9968079  47.0114754  57.1018372
  25.9853489  56.0962246  56.2808862  26.1343053  55.5365162  55.6282266
  26.7653491  56.1754248  56.6641381  26.1227583  56.0247812  56.2405811
  28.5106790  56.2676889  57.5593353  28.4350461  55.5985699  58.1144141
  28.4396649  56.9694677  58.0734019  28.4887397  56.2721796  57.7170201
  29.3247428  41.0000193  58.0868370  29.7820043  41.7324168  58.2141162
  29.4003757  40.5766659  58.8455626  29.4038398  41.0457431  58.2169447
  21.5680420  41.2466013  59.1757814  21.0322609  40.6346371  59.4918581
  21.6298184  41.8214149  59.8291481  21.4976052  41.2412941  59.3193241
  29.1677037  54.7877888  48.3916959  29.9326928  54.5187532  48.0699623
  29.0655127  54.3027898  49.1087021  29.2658532  54.6767452  48.4496786
  27.2029806  42.9902297  54.9310194  26.4125881  42.8093757  55.2527530
  27.5990429  42.2129250  54.9140489  27.1446683  42.8489758  54.9762743
  32.5873493  50.6244727  52.6569640  31.9118495  50.3929960  53.1583027
  32.5965869  50.0165910  52.0311745  32.4891997  50.5003653  52.6385792
  29.7167637  45.4662556  59.4133693  29.6526778  46.3272513  59.2853830
  29.8564824  45.1494550  58.6129244  29.7283107  45.5462723  59.2761906
  34.5890227  53.4809860  44.8879818  34.6710065  54.2876846  44.5641269
  35.0739969  53.5005819  45.6120592  34.6727385  53.6030522  44.9466717
  28.3986731  48.1594696  53.5549896  27.9748980  48.3599195  52.8188914
  28.2231586  47.3123544  53.6674196  28.3097611  48.0643477  53.4623586
  27.8998424  59.6745209  56.0171353  28.3894354  58.9755998  55.8347018
  27.3282656  59.3769079  56.6047411  27.8882954  59.5271432  56.0772394
  23.6869176  48.6546747  48.9877869  23.8433795  48.5893550  49.8433861
  24.0269769  49.4295300  48.7756548  23.7602410  48.7595945  49.0832463
  30.2248320  48.0304631  47.8571232  30.7663866  47.5275012  48.3209852
  30.5394879  47.9769825  47.0460717  30.3512717  47.9484052  47.8055044
  34.0965428  52.2407278  64.9698144  34.9100293  51.9692427  65.1303277
  33.9360394  51.9414818  64.1658340  34.1935376  52.1562204  64.8743550
  28.3934770  53.4221982  45.1411260  28.4627590  52.5636521  45.2804260
  29.1723225  53.6393863  44.8130284  28.5187620  53.3274846  45.1128417
  31.3737590  42.9240935  57.9093532  31.5879559  42.2851849  57.3556886
  30.7571489  43.3686759  57.4801394  31.3142919  42.8951079  57.7643963
  32.7842257  55.8459684  49.3547753  32.3922049  55.5426399  48.6370619
  32.9395330  56.6828773  49.1652707  32.7495847  55.9243520  49.2204250
  20.2603437  45.8381698  49.3038636  20.6402402  46.2566243  48.6398903
  19.6858802  46.4195153  49.6107479  20.2314762  45.9859556  49.2515377
  33.5376678  44.5330000  58.8476839  32.7253359  44.2255891  58.9290012
  33.9966612  44.0529001  59.4119552  33.4857062  44.4166493  58.9431434
  32.9481932  52.4109672  49.2953784  32.5896587  52.5824315  50.0717816
  32.4620643  52.8722878  48.7381782  32.8240629  52.5048643  49.3279053
  30.6330185  45.9390072  63.6305542  31.1029816  46.5632188  64.0173416
  30.6792065  45.2707047  64.1898756  30.7098061  45.9324752  63.7705613
  29.8593692  38.5840059  56.1847198  29.4725445  38.6089091  56.9660728
  29.3726629  38.0181738  55.7321715  29.7306201  38.5035810  56.2335102
  34.1086672  53.3013568  60.2420985  34.7466392  52.8073764  59.9083441
  33.4660763  53.2290969  59.6573211  34.1080898  53.2172577  60.1063340
  29.5250834  35.4707045  58.4757458  30.1543952  36.0067345  58.1978528
  29.6936697  35.3784404  59.3271024  29.6428628  35.5368407  58.5605986
  29.3264749  40.2578240  60.7483870  30.1538178  39.9863388  60.8042484
  29.3472595  41.0539081  61.1047688  29.4517599  40.3357994  60.8099052
  34.1640928  53.9933377  56.8826341  34.9533306  53.6422441  57.0028423
  34.3384526  54.8069765  56.6202975  34.3061210  54.0619234  56.8614209
  23.9034239  47.4042102  53.9354130  23.0622245  47.3045977  54.1433024
  24.1124247  48.1737583  54.2868451  23.8098931  47.5034146  54.0181445
  21.3809806  45.0261639  51.7638881  20.9866503  45.1004651  50.9888991
  20.8249922  45.4119586  52.3147243  21.2412618  45.0943414  51.7306541
  27.7150903  45.3323502  53.1851728  27.4114041  44.7779490  53.7862135
  27.0130324  45.5115712  52.6979762  27.5667113  45.2768284  53.2021433
  25.7769254  52.5473222  57.8923826  25.6689609  52.5575284  58.7585884
  25.9865036  53.3728003  57.7028779  25.7919366  52.6714297  57.9927917
  23.7943046  49.7985865  55.3545763  23.2030980  50.4395363  55.3248778
  24.5564070  50.2223482  55.3277063  23.8191307  49.9561703  55.3460910
  24.1903669  40.9587862  56.0213781  24.6505151  41.0326792  56.7588904
  24.2359776  41.7569116  55.6713602  24.2654225  41.0882009  56.0786537
  25.8387019  41.6254557  60.5885808  25.4472584  40.9787904  61.0241586
  26.0072882  42.2165993  61.2080063  25.8057929  41.6168825  60.7448514
  33.5532563  55.2495176  52.7877788  33.3552251  55.7385991  52.0933999
  32.9320274  55.4536418  53.3661921  33.4320127  55.3511714  52.7701011
  27.6140541  47.0180073  47.1288032  28.3582586  47.4054349  47.3670982
  27.7601237  46.1737498  47.2928520  27.7451126  46.9510546  47.1882002
  20.9791447  44.5877053  58.3965497  21.8417060  44.4872762  58.3102827
  20.6483230  44.0071762  57.8351069  21.0576643  44.4868680  58.3010903
  24.3393233  43.4119502  55.0575915  23.7146303  43.4237894  54.4501868
  24.0038828  43.8879677  55.7067155  24.1978725  43.4838019  55.0632484
  21.0518909  51.4719962  56.4979679  20.5218833  50.7812401  56.5474654
  21.3244002  51.4630148  55.6692388  21.0143631  51.3687094  56.3827095
  32.0838999  52.0545665  45.2217362  32.8073198  52.5203778  45.0781935
  31.6439590  52.1219274  44.4714959  32.1254691  52.1329501  45.0902143
  31.2525154  48.9143207  56.4718051  30.6382147  48.3701257  56.7666686
  31.7692439  48.4007443  55.9923867  31.2380817  48.7579616  56.4442279
  30.4921451  49.9847477  54.2062350  30.0649059  49.3597195  53.7727785
  30.4846396  49.7022399  55.0321357  30.4280592  49.8500257  54.2642177
  23.6083978  45.0212650  57.2750784  23.7677465  44.2655974  57.6802506
  23.4276872  45.5703589  57.9291521  23.6049337  44.9906464  57.4313490
  31.5504281  37.1873885  57.8301573  31.0544843  37.3837560  57.1393140
  32.3073343  37.5866554  57.6590375  31.5891106  37.2751619  57.7021710
  28.8207161  40.8616231  54.4204884  28.8449648  40.3276344  53.7317664
  29.0718635  40.3533540  55.0830474  28.8617080  40.7077135  54.4169528
  16.3314751  48.1447726  53.8548028  16.2258200  48.0994571  52.9900112
  15.5814971  48.4901507  54.1362313  16.2050354  48.1888634  53.7685357
  25.1008483  39.5887050  53.8010628  25.1406855  40.0896256  54.5145335
  24.2758148  39.6797443  53.5316551  24.9848009  39.6768866  53.8661166
  27.2838096  49.1547790  61.9030923  26.4333727  49.2919504  62.0388567
  27.4466224  48.4211568  62.3478624  27.1821960  49.0661891  61.9886522
  26.5222847  46.1047559  56.0984527  25.6914776  46.2721377  55.8919775
  26.4674364  45.7283510  56.8833412  26.3912261  46.0737291  56.1833055
  24.3306630  39.5956452  61.7340938  24.9559333  39.0518585  62.0070370
  23.8757110  39.1151370  61.1648728  24.3554890  39.4445934  61.6902531
  29.7335068  52.2003112  57.4511480  29.2260160  52.7538959  57.8952110
  29.4361715  52.2611402  56.6330254  29.6139953  52.2909423  57.3959936
  31.8997251  40.5656431  56.2936143  32.3252322  40.1128958  55.6819669
  31.2854244  40.0116502  56.5700930  31.8725896  40.4170408  56.2441168
  21.4312101  47.4438103  47.2256767  21.9404330  48.0402610  47.6068073
  21.9046373  47.1764076  46.5433187  21.5755476  47.4923918  47.1811290
  32.3442849  56.1166369  45.3815423  31.6272158  55.9427232  44.9162660
  32.9949586  55.8818942  44.8490909  32.3344699  56.0562162  45.2344641
  28.9777554  57.1327670  54.3568486  28.7543208  56.3746499  54.7252513
  28.4887397  57.1625691  53.6348926  28.8721003  57.0249895  54.3045227
  23.7902632  44.0794361  50.0929948  23.0714622  44.4958494  50.3602811
  24.1614995  44.6448600  49.5421586  23.7394564  44.2243643  50.0512755
  33.0902213  44.7122210  55.9831944  33.0700141  44.5305505  56.8366722
  33.1381414  45.5834229  55.9591527  33.0936854  44.8138748  56.1055238
  31.0348543  51.3009402  61.9080420  30.9944398  50.6559079  61.3225576
  31.8471861  51.2446020  62.2205832  31.1491697  51.1968369  61.8677369
  27.6256011  57.3528128  51.8105571  27.2116409  56.6902258  51.4209413
  28.3103385  57.5005987  51.2901265  27.6654382  57.2768786  51.6762068
  30.9921305  56.5118213  52.5629188  30.5937588  56.6220484  51.7950008
  30.3772524  56.7200280  53.1455747  30.8420194  56.5591781  52.5360487
  26.7226252  44.9306339  58.4630178  26.2105155  44.3227522  58.8215209
  26.5505748  45.6462931  58.9304154  26.6215889  44.9469638  58.5846401
  21.5691967  43.3743914  61.1132540  21.3994557  44.0345289  60.5680746
  21.1257916  43.5850475  61.8345029  21.4791300  43.5029896  61.1394169
  30.5995322  42.8530583  60.9032433  31.1566752  42.6244393  60.2710899
  30.2756387  43.6136249  60.6267646  30.6341732  42.9314420  60.7688930
  18.4694031  46.2790780  56.3721029  17.9220750  45.6091425  56.4901898
  19.2586409  45.9120627  56.4364497  18.5046215  46.1255766  56.3989730
  28.3178439  45.9398237  61.8684440  29.0689766  46.2549914  62.1823995
  28.5101016  45.7377408  61.0418362  28.4569854  45.9565618  61.7927836
  17.2281001  45.4911587  53.5267052  17.0502762  45.0388196  54.2521968
  16.9400023  46.2937749  53.7105530  17.1593954  45.5434145  53.6610555
  32.8904582  46.7469305  52.7644443  33.3858247  46.0292300  52.7248463
  32.0804357  46.4440102  52.6498930  32.8448475  46.5966951  52.7418169
  28.3363193  50.5967118  44.9141447  27.5274516  50.2733792  44.8674757
  28.8438102  49.8900340  44.8469696  28.2912860  50.4448434  44.8971742
  18.9653470  48.0239311  50.6388812  18.0998990  48.0125002  50.5271583
  19.0652286  47.8369534  51.4859951  18.8527637  47.9945372  50.7477756
  34.9556400  49.4972992  55.4521572  35.3811472  48.9747414  54.8991997
  34.5913320  50.0953830  54.9310195  34.9643003  49.5083219  55.2930581
  24.5910480  57.7937210  54.2118917  24.9057039  58.6073598  54.2196699
  25.0003894  57.4087428  54.8801076  24.6978578  57.8565912  54.3123009
  31.5435000  53.2107257  51.7822729  32.0146178  53.9247519  51.9512714
  31.8795178  52.6106007  52.3182599  31.6630115  53.2278721  51.8855105
  33.6311985  54.8208570  63.9614801  33.7408950  54.0317131  64.3171548
  33.9602881  54.7314506  63.1589139  33.6964390  54.6914423  63.8957192
  28.4604495  37.9834727  58.7380824  28.5932400  37.1865721  59.0661799
  28.8449648  38.5101130  59.3179099  28.5360824  37.9434644  58.8724327
  32.1808946  53.0025191  58.5450422  31.6329892  52.3783074  58.2770487
  32.6421975  53.1919463  57.8294501  32.1676156  52.9384241  58.4000853
  34.9902811  41.0710545  55.9301614  34.4065799  41.5719752  55.5179181
  35.3107105  40.5640101  55.2965937  34.9515986  41.0702380  55.7760121
  26.1192942  37.9793902  56.9858718  26.6637355  37.6385029  57.5763059
  26.1729877  38.8379364  57.1280002  26.2082061  38.0549162  57.0940591
  21.9323500  51.7410318  53.8597525  22.5368358  51.7006152  53.2311346
  21.7250813  52.5881470  53.8901581  21.9912398  51.8598321  53.7713642
  31.7467273  54.0076263  55.0759763  32.5665646  53.8639229  55.3376058
  31.4661350  54.6322462  55.6176201  31.8264016  54.0786615  55.1947702
  17.1674783  50.7244936  53.7296449  17.0699061  49.9141207  54.0386505
  17.9503652  50.7036729  53.3442717  17.2690919  50.6012026  53.7183312
  48.2180923  61.6641115  48.0402639  48.1874927  62.5185752  48.2120909
  48.8162272  61.3636408  48.5988783  48.3018081  61.7457612  48.1477442
  41.4180608  60.7516766  52.7955570  40.5618503  60.9125264  52.8464686
  41.4648262  59.8808830  52.8160631  41.2979719  60.6467568  52.8061636
  35.8021748  70.2879484  48.5592801  35.0504647  69.9095022  48.3308846
  36.2507759  70.3197918  47.8111612  35.7571414  70.2365091  48.4150303
  44.7274324  67.0203292  62.4016026  45.4341092  66.5255322  62.5302960
  44.9162260  67.4612373  61.6718684  44.8602230  67.0121642  62.3125071
  41.2546707  70.7104853  43.9878348  40.9198076  71.3881775  43.5522570
  41.7673578  70.3210165  43.3995220  41.2812289  70.7529432  43.8365140
  40.7950999  72.6619122  49.9289460  41.1790378  73.2306021  49.3894235
  40.7310140  71.9368633  49.4495276  40.8424426  72.6394586  49.7783322
  44.2632429  62.8108810  55.4387221  44.8088389  63.4893897  55.4981191
  44.2049305  62.6696271  54.5788803  44.3348343  62.8900812  55.3199282
  37.3806504  70.2997876  50.8255574  37.4816867  69.4898230  51.1352701
  36.7848249  70.2054823  50.1955252  37.3079042  70.1662904  50.7781812
  46.0397497  64.2393417  46.3120949  45.9237023  64.9901103  46.7413087
  46.8353384  63.9817370  46.5617036  46.1402087  64.3128264  46.4125041
  37.2207243  75.2175465  52.2270430  37.8644699  75.6588629  52.6166588
  37.5463499  74.4128892  52.1400689  37.3639072  75.1640660  52.2715907
  30.5771548  66.3218163  50.4507907  30.3421732  65.4885815  50.3440176
  30.7157189  66.6022828  49.6369108  30.5627210  66.2401666  50.3150262
  32.8761635  58.4903893  53.3492215  32.2566667  57.8996541  53.1802230
  32.7745499  59.0815329  52.7156538  32.7699311  58.4907976  53.2297205
  37.9227823  68.2287440  47.5990291  38.2443664  68.7692647  46.9951600
  38.5699919  67.6584212  47.7312581  38.0653878  68.2246615  47.5297327
  39.9729531  60.2303435  47.6824678  40.6709696  60.4091563  48.1746141
  40.2881864  59.7073774  47.0595068  40.1224868  60.1797207  47.6626688
  32.6030768  62.0356175  55.5935784  32.4789465  62.6218621  56.2285603
  33.2549053  61.5416371  55.8948059  32.6804418  62.0494979  55.7321713
  40.1617466  66.6173880  47.6704470  40.6011102  66.0090981  48.1159242
  40.0122129  66.2381253  46.8989935  40.2038932  66.4712351  47.6223637
  37.6289109  65.2117892  54.8723295  38.2738112  64.7190335  54.5534244
  37.8690886  65.3542679  55.6989373  37.7599695  65.1595334  54.9472828
  40.1675201  68.0572798  54.5230188  40.4498444  67.2624204  54.3016944
  40.8961361  68.5353385  54.5435249  40.3164764  68.0107395  54.4933203
  38.1456395  55.5995832  51.7645953  37.8159725  56.0506975  51.0949652
  37.4701396  55.5211995  52.3118959  37.9966831  55.6546967  51.7469176
  43.7626803  64.9701061  44.6235239  43.6778098  65.8262028  44.7684808
  44.2511186  64.6945386  45.2917398  43.8215700  65.0558383  44.7437320
  44.6945236  61.5885856  46.1232974  44.1656708  61.8045489  46.7830280
  45.2170256  62.2821994  46.0433943  44.6933689  61.7228993  46.2088573
  50.1493289  67.1632160  51.4966018  49.3190992  67.3742804  51.6599435
  50.1002541  66.3369215  51.2208302  50.0200025  67.0721766  51.4803384
  36.5844844  65.4849072  44.9240442  36.0002059  65.9899104  45.3306306
  36.1814939  65.2591459  44.1837034  36.4384148  65.5257321  44.8745467
  32.1388873  71.2003834  51.7264114  31.6556451  71.9254323  51.7023697
  32.9512191  71.4979964  51.8374271  32.1879620  71.3506187  51.7391393
  38.2103027  69.9936014  54.3313928  37.6929968  69.6343429  53.7275236
  38.9077418  69.4698189  54.3419994  38.2368608  69.8633702  54.2444187
  41.8666619  70.4430828  60.2930101  41.9549965  70.2556969  61.1408311
  42.2956331  69.7968258  59.8934948  41.9428721  70.3193836  60.3601853
  39.4337078  69.7261988  59.2747763  38.8707913  69.3134598  59.7987424
  40.1958102  69.6514894  59.6940907  39.4631527  69.6539389  59.4140764
  41.0422058  61.7314724  43.4009363  41.2818062  61.9392708  42.5884706
  41.3637899  60.9272233  43.5098307  41.1259216  61.6428826  43.2969916
  36.3512349  53.6608120  47.2468901  37.1058317  54.0286437  47.0085951
  36.1739883  54.0347675  48.0148080  36.4366827  53.7706308  47.3253789
  34.9933070  71.7160009  51.8784393  35.6953649  71.2011998  51.9357150
  34.9130553  72.0434161  52.6831268  35.0856830  71.6874236  52.0057186
  49.6447247  59.8102561  55.2916440  48.8075668  59.8804748  55.5264034
  49.6135478  59.8127056  54.4190742  49.5165530  59.8212788  55.1975988
  36.0411976  61.9535596  61.0064808  36.2132480  61.8441491  61.8550090
  36.5781334  62.5990002  60.7696001  36.1456980  62.0327598  61.0969905
  34.7069413  56.0678439  43.9447014  34.5244987  56.2850320  43.1188006
  35.5695026  56.1817452  44.0005628  34.8074003  56.1168337  43.8301501
  34.3183845  67.9066361  51.3870001  35.1572745  68.1389294  51.4343763
  34.3495614  67.0370673  51.3177037  34.4465563  67.8123308  51.3834646
  34.9436548  68.3267237  55.6883307  35.4834773  68.1838368  56.3586679
  34.2606495  68.7263987  56.0567333  34.9228702  68.3646908  55.8417729
  44.3677433  64.0058237  50.8828331  45.1234948  64.4389752  50.9217240
  44.4739758  63.3563007  51.4562967  44.4947604  63.9735721  50.9726357
  47.4057604  67.8331514  51.6330734  46.9692836  67.8368257  52.3889706
  47.0720520  68.5137013  51.2010312  47.2920224  67.9343970  51.6811567
  41.9786678  69.8739847  62.9573885  42.7627095  69.9870695  63.3229627
  41.7783272  69.0480984  63.1532570  42.0652703  69.7686567  63.0408271
  30.3473693  64.5467527  55.8417728  30.0812109  63.7306644  56.0008719
  30.3612258  64.5920683  54.9713244  30.3098416  64.4324432  55.7371210
  47.3255087  54.8745342  53.8760162  47.9680996  54.9443447  54.4622077
  47.5778108  54.2074565  53.3739704  47.4577219  54.7871691  53.8887441
  34.2531440  59.3452612  42.4569487  33.5389617  59.0590791  42.8691919
  34.7375409  59.6849238  43.0975874  34.2190804  59.3534261  42.6125121
  35.0972300  58.0845906  58.4884736  34.4044097  57.6142885  58.7345468
  35.7132627  57.8584210  59.0626443  35.0856830  57.9813038  58.6093889
  42.1357071  71.7849949  56.6040340  41.3372317  71.5449449  56.8614209
  42.5843083  71.8364342  57.3507388  42.0831683  71.7572341  56.7525264
  50.5401951  64.5512434  50.5250372  51.2018385  63.9903103  50.4246280
  49.8993363  64.0564465  50.8503063  50.5430818  64.3948843  50.5582712
  41.4278758  67.8482566  42.8331295  41.8429907  67.5167590  42.1415791
  40.5970688  67.6151468  42.7051431  41.3666767  67.7653822  42.7122142
  30.7567107  65.3326307  53.1229473  30.5742680  65.3073193  52.2701765
  31.4916776  65.8025245  53.1618381  30.8381171  65.3987669  53.0027391
  46.8266781  65.5677817  50.2662360  47.0622370  65.7123016  49.4389211
  46.9756345  66.3320225  50.6593874  46.8832585  65.7016871  50.2025964
  33.8212859  62.0511310  59.6311581  34.5452831  62.0364340  60.1176476
  33.9228995  62.7606665  59.1333550  33.9431068  62.1536013  59.6290368
  48.6557238  64.4079483  48.1031964  48.9865455  64.9407123  47.4972059
  49.2290326  64.4618370  48.7593915  48.7890917  64.4949052  48.1109746
  41.1957808  65.5310394  64.4960528  40.4030789  65.8453906  64.6813148
  41.3106735  65.7461863  63.6581313  41.0953219  65.6094231  64.3998863
  43.8689127  62.2544385  48.7855544  43.9635981  62.9933680  49.2395170
  43.2447971  61.8261861  49.2190109  43.7898157  62.3005706  48.9163692
  42.1241601  65.4330598  59.4345825  42.6980463  64.7957842  59.5894389
  42.0456405  65.4334680  58.5655483  42.1974836  65.3395709  59.3292236
  30.7238017  62.2119807  53.2728539  31.3011520  62.0756258  53.9120785
  30.0252079  61.7555592  53.5274124  30.7059039  62.1242074  53.4050829
  44.1212148  64.0993125  42.0192496  44.0392311  64.1695312  42.8847483
  44.7591869  64.6622869  41.8276237  44.2031986  64.1932096  42.1182446
  37.4805320  63.8653863  51.4867023  37.2224564  63.0325598  51.4598322
  37.5353802  64.0911476  50.6459523  37.4505097  63.7751634  51.3587159
  42.5606370  55.9682314  51.5871115  41.8562696  55.4791499  51.7455034
  42.6091344  55.9804788  50.7159560  42.4636421  55.8971962  51.4810455
  36.4540032  61.4191626  51.9731917  35.8789623  61.5783794  52.6095878
  36.0775708  60.7827035  51.5100368  36.3142844  61.3489439  51.9986476
  40.1213320  59.8914975  56.8324296  39.7327753  59.4669193  56.1776487
  39.4568019  60.1397125  57.3401322  39.9660248  59.8653696  56.8112164
  49.7636590  59.6489980  49.6072126  49.5073154  58.8369921  49.4170009
  50.6065903  59.6567547  49.3802313  49.8502615  59.5301977  49.5456943
  26.1996851  61.0631700  49.9876358  26.2857102  60.6863569  50.7689888
  26.8272648  60.6892146  49.5096316  26.3053402  60.9517183  50.0321835
  43.9439682  53.5889604  54.3448280  44.3250194  52.9067775  54.7316154
  43.1402966  53.2999206  54.1623944  43.8816144  53.4456652  54.3752336
  41.2252259  64.1213579  45.0301103  42.0392897  64.4128472  44.9183874
  41.1611400  63.4673442  44.4559396  41.3354998  64.0678774  44.9289940
  47.4461749  66.8039576  59.4430678  47.2100386  65.9727640  59.3242739
  48.0904978  66.7525183  60.0285523  47.5056420  66.6737264  59.5116572
  37.0960167  67.5935097  50.1573415  37.7334114  67.3546844  50.7025208
  37.5215238  67.7972256  49.4226575  37.2536333  67.5886107  50.1290572
  31.7872809  69.8323433  54.0407719  31.8276955  70.1038285  53.2127498
  32.3467333  70.3565342  54.4565506  31.8756155  69.9499189  53.9799607
  37.7362982  62.8137387  44.4948304  38.1208135  62.5945093  45.2464849
  37.4874602  63.6400332  44.6249381  37.7565054  62.9035533  44.6249381
  37.9031522  56.0943802  64.2110888  37.5884963  56.8643365  63.9480451
  37.5821455  55.5314058  63.6263115  37.8090441  56.1254071  64.0852238
  48.4698169  66.5884024  55.5058973  48.1643986  67.3212081  55.8672288
  47.7504385  66.1821954  55.2251759  48.3185512  66.6365757  55.5172110
  39.4781639  68.0707520  51.8367201  39.5520647  67.9082691  52.6909051
  40.2951145  68.2597709  51.5927683  39.6097997  68.0744262  51.9265227
  54.1699962  63.2277025  54.8327317  54.1024462  63.2472984  53.9629904
  54.1555624  64.0707352  55.0582988  54.1578718  63.3550760  54.7379794
  33.2387396  68.4165382  48.8661645  32.4125513  68.6627120  48.7395923
  33.2999387  68.3377463  49.7323703  33.1261562  68.4410331  48.9750589
  35.4563419  54.4834323  49.8257085  34.5885845  54.5556923  49.8914694
  35.7438624  55.2856402  50.0145060  35.3703167  54.6128470  49.8631851
  44.5796308  54.6312183  58.1568407  45.3249900  54.4421993  57.7431832
  44.1633613  55.1570421  57.5982263  44.6281282  54.6814328  58.0132980
  38.0186225  71.0342263  46.5680674  38.3084523  70.6431244  45.8439901
  38.7489705  71.2158968  47.0085950  38.1693109  71.0036076  46.5263481
  51.9558579  62.0021411  53.1073911  52.5066500  61.3689480  53.3471004
  51.9402694  62.5336804  53.7989416  52.0343775  61.9870359  53.2452770
  38.6080970  65.8360009  57.6533805  38.1092663  66.5475776  57.7318693
  39.4181194  66.1560675  57.6151967  38.6537076  65.9886857  57.6590373
  35.9592140  73.0109645  49.6340824  35.7392436  72.7207000  50.4267491
  35.7386662  72.3524600  49.1058736  35.8939734  72.8709353  49.6729733
  34.8709087  65.0982962  51.8996526  34.5822336  64.4720433  52.4342253
  35.7392435  65.0403249  51.9661206  34.9569339  64.9970506  51.9887480
  45.6586985  60.2417745  52.2178508  45.3151751  59.5208080  52.5685757
  45.7580028  60.0331596  51.3756866  45.6229028  60.1041948  52.1450188
  38.1260096  74.3839035  48.4171517  38.7784154  73.8515477  48.6462543
  37.4285705  74.0307687  48.8039391  38.1190814  74.2528558  48.5083684
  35.0741361  66.7378213  47.8238891  35.8287329  67.1191252  48.0374353
  34.4811973  67.1889356  48.2785587  35.0978074  66.8607040  47.9221769
  46.1200014  66.7043449  47.7602496  46.6858047  67.3636659  47.6761039
  45.4727918  67.0493147  48.2318898  46.1078771  66.8525390  47.8175252
  37.5348028  58.6941053  62.9496103  36.7247803  58.9998833  62.8385945
  38.0122714  59.4146635  63.0648687  37.4851506  58.8455654  62.9503174
  36.3939587  67.9086774  53.1979006  35.8720341  68.0487066  53.8830871
  36.7813608  67.1497438  53.3881124  36.3743288  67.8172298  53.3280083
  33.3830771  57.9592583  47.2673961  33.0955567  57.5893853  46.5305908
  34.0701240  58.4287438  47.0057666  33.4419669  57.9739552  47.1189037
  42.5906592  69.6482233  47.1839575  42.3493268  68.9150094  46.7766640
  42.7707925  70.1969090  46.5305908  42.5814216  69.6204624  47.0269798
  37.8205913  64.9390793  48.5960497  37.6248696  65.5465528  48.0020800
  38.0440259  64.2458737  48.1152171  37.8240554  64.9268318  48.4376578
  36.2184443  61.8245531  48.7141366  36.9407095  61.9886689  48.2545172
  35.7392436  62.5455196  48.6080705  36.2548174  61.9543760  48.6306980
  44.1777951  58.1609330  54.0938051  43.3389051  58.1870609  53.8576314
  44.2482318  58.8080065  54.6743397  44.0646344  58.2605456  54.1447167
  33.8692060  64.2303603  57.8195506  34.3813157  64.5087857  57.1704265
  33.5828402  64.9692897  58.1858319  33.9026923  64.3805957  57.7785384
  48.0535474  63.3677316  51.3799292  47.9669449  63.5232743  52.2334071
  47.5985954  64.0115392  51.0058697  47.9738731  63.4853072  51.4506399
  30.9558966  58.7373795  48.1159242  31.0575102  59.5399957  48.4440217
  31.7514853  58.5361131  47.8182323  31.0886872  58.8259694  48.1194597
  37.3875785  56.3229992  57.8796547  37.1958982  56.3385126  58.7295971
  38.2374381  56.5193666  57.8563202  37.4851507  56.3544343  58.0019842
  31.7722698  58.8520973  55.8580364  31.6308190  58.0004914  55.9824872
  32.0563261  58.8949634  55.0342570  31.7930544  58.7320723  55.7547988
  41.9261290  60.6888064  50.0024852  41.6796005  60.6083814  50.8361641
  42.2546413  59.9041531  49.8087379  41.9382534  60.5614329  50.0972375
  45.8209339  67.3971423  53.7911633  45.6823699  68.0952469  54.2960375
  45.0409337  67.2420079  53.4347815  45.6852566  67.4771590  53.8137907
  44.1587424  63.6967798  60.0434015  44.1535463  62.8247615  60.0476441
  44.8648418  63.8955967  59.5703470  44.2632428  63.5971672  59.9741050
  37.8858318  63.4244782  59.4147835  38.0301693  64.0045990  58.7790945
  38.2333966  63.8021079  60.1197690  37.9585779  63.5665486  59.4246830
  40.0578235  62.6234951  57.1972967  39.3101549  62.8165965  56.7921245
  40.2119760  61.7980170  56.9597088  39.9700663  62.5300062  57.1018372
  36.9586073  71.6147554  56.2808862  37.1075636  71.0550470  55.6282266
  37.7386075  71.6939556  56.6641381  37.0960166  71.5433119  56.2405811
  47.3162712  66.7549677  44.5528132  46.9369521  65.9686815  44.5457422
  46.6528957  67.3036534  44.4099777  47.1621187  66.7194501  44.5308929
  39.4839373  71.7862197  57.5593353  39.4083044  71.1171007  58.1144141
  39.4129232  72.4879985  58.0734019  39.4619980  71.7907104  57.7170201
  40.2980012  56.5185501  58.0868370  40.7552626  57.2509476  58.2141162
  40.3736341  56.0951967  58.8455626  40.3770982  56.5642739  58.2169447
  32.5413003  56.7651321  59.1757814  32.0055193  56.1531679  59.4918581
  32.6030768  57.3399457  59.8291481  32.4708636  56.7598249  59.3193241
  40.1409620  70.3063196  48.3916959  40.9059511  70.0372839  48.0699623
  40.0387710  69.8213206  49.1087021  40.2391116  70.1952760  48.4496786
  38.1762390  58.5087605  54.9310194  37.3858465  58.3279065  55.2527530
  38.5723013  57.7314558  54.9140489  38.1179266  58.3675066  54.9762743
  42.6628281  67.3375379  40.3716908  43.4301266  67.3975504  39.9622760
  42.2159590  66.7655821  39.8873226  42.7101708  67.2611955  40.2394618
  43.5606076  66.1430035  52.6569640  42.8851078  65.9115268  53.1583027
  43.5698452  65.5351218  52.0311745  43.4624581  66.0188961  52.6385792
  40.6900220  60.9847864  59.4133693  40.6259361  61.8457821  59.2853830
  40.8297408  60.6679858  58.6129244  40.7015690  61.0648031  59.2761906
  45.5622811  68.9995168  44.8879818  45.6442648  69.8062154  44.5641269
  46.0472553  69.0191127  45.6120592  45.6459969  69.1215830  44.9466717
  39.3719314  63.6780004  53.5549896  38.9481563  63.8784503  52.8188914
  39.1964169  62.8308852  53.6674196  39.2830195  63.5828785  53.4623586
  38.8731008  75.1930517  56.0171353  39.3626938  74.4941306  55.8347018
  38.3015240  74.8954387  56.6047411  38.8615538  75.0456740  56.0772394
  34.6601759  64.1732055  48.9877869  34.8166378  64.1078858  49.8433861
  35.0002352  64.9480608  48.7756548  34.7334994  64.2781253  49.0832463
  41.1980904  63.5489939  47.8571232  41.7396449  63.0460320  48.3209852
  41.5127463  63.4955133  47.0460717  41.3245301  63.4669360  47.8055044
  45.0698011  67.7592586  64.9698144  45.8832876  67.4877735  65.1303277
  44.9092977  67.4600126  64.1658340  45.1667960  67.6747512  64.8743550
  39.3667353  68.9407290  45.1411260  39.4360174  68.0821829  45.2804260
  40.1455809  69.1579171  44.8130284  39.4920204  68.8460154  45.1128417
  42.3470173  58.4426243  57.9093532  42.5612143  57.8037157  57.3556886
  41.7304072  58.8872067  57.4801394  42.2875502  58.4136387  57.7643963
  43.7574841  71.3644991  49.3547753  43.3654633  71.0611707  48.6370619
  43.9127913  72.2014081  49.1652707  43.7228431  71.4428828  49.2204250
  31.2336021  61.3567006  49.3038636  31.6134985  61.7751550  48.6398903
  30.6591385  61.9380461  49.6107479  31.2047346  61.5044864  49.2515377
  44.5109261  60.0515308  58.8476839  43.6985943  59.7441199  58.9290012
  44.9699196  59.5714308  59.4119552  44.4589646  59.9351801  58.9431434
  43.9214516  67.9294980  49.2953784  43.5629171  68.1009623  50.0717816
  43.4353227  68.3908186  48.7381782  43.7973213  68.0233951  49.3279053
  38.7102881  63.6094146  41.8354018  38.9995406  64.3859028  42.1097592
  38.7974680  63.0982877  42.5368517  38.7657137  63.6486064  41.9796516
  41.6062769  61.4575380  63.6305542  42.0762400  62.0817496  64.0173416
  41.6524649  60.7892355  64.1898756  41.6830644  61.4510060  63.7705613
  40.8326276  54.1025367  56.1847198  40.4458029  54.1274399  56.9660728
  40.3459213  53.5367046  55.7321715  40.7038785  54.0221118  56.2335102
  45.0819255  68.8198876  60.2420985  45.7198976  68.3259072  59.9083441
  44.4393347  68.7476277  59.6573211  45.0813482  68.7357885  60.1063340
  46.8076255  60.6688022  54.8086900  46.3803863  60.5814371  54.0535000
  46.1702308  60.7765798  55.3941744  46.6505862  60.6720682  54.7832342
  40.4983417  50.9892353  58.4757458  41.1276535  51.5252653  58.1978528
  40.6669280  50.8969712  59.3271024  40.6161212  51.0553715  58.5605986
  40.2997332  55.7763547  60.7483870  41.1270762  55.5048696  60.8042484
  40.3205178  56.5724389  61.1047688  40.4250182  55.8543302  60.8099052
  45.1373512  69.5118685  56.8826341  45.9265890  69.1607749  57.0028423
  45.3117110  70.3255073  56.6202975  45.2793793  69.5804542  56.8614209
  34.8766822  62.9227410  53.9354130  34.0354829  62.8231284  54.1433024
  35.0856830  63.6922891  54.2868451  34.7831515  63.0219454  54.0181445
  32.3542389  60.5446947  51.7638881  31.9599087  60.6189959  50.9888991
  31.7982506  60.9304894  52.3147243  32.2145201  60.6128722  51.7306541
  38.6883487  60.8508809  53.1851728  38.3846625  60.2964798  53.7862135
  37.9862908  61.0301019  52.6979762  38.5399697  60.7953592  53.2021433
  37.7449584  58.1609329  47.7496430  38.0209318  57.4428242  47.3373997
  38.3448253  58.7594249  47.5417536  37.8742849  58.1429700  47.6577191
  36.7501838  68.0658530  57.8923826  36.6422193  68.0760592  58.7585884
  36.9597620  68.8913311  57.7028779  36.7651949  68.1899605  57.9927917
  41.2460105  55.8322847  46.0243025  41.7003851  56.0033407  46.7490869
  41.7200150  55.2190957  45.6240800  41.3828425  55.7673732  46.0716786
  34.7675630  65.3171173  55.3545763  34.1763563  65.9580671  55.3248778
  35.5296654  65.7408790  55.3277063  34.7923891  65.4747011  55.3460910
  35.1636253  56.4773170  56.0213781  35.6237734  56.5512100  56.7588904
  35.2092360  57.2754424  55.6713602  35.2386808  56.6067317  56.0786537
  36.8119603  57.1439865  60.5885808  36.4205168  56.4973212  61.0241586
  36.9805465  57.7351300  61.2080063  36.7790513  57.1354133  60.7448514
  50.8866052  65.1476942  56.3523041  50.9449175  65.5963591  57.0983018
  50.2532519  65.5575755  55.9153121  50.8017347  65.2750677  56.3975590
  44.5265146  70.7680484  52.7877788  44.3284835  71.2571299  52.0933999
  43.9052857  70.9721726  53.3661921  44.4052711  70.8697022  52.7701011
  38.5873125  62.5365381  47.1288032  39.3315170  62.9239657  47.3670982
  38.7333821  61.6922806  47.2928520  38.7183710  62.4695854  47.1882002
  41.5751001  58.1090854  53.0281951  41.1010955  57.5832616  53.5387262
  41.9469136  57.5620327  52.4596813  41.5600889  57.9506851  53.0197098
  31.9524031  60.1062361  58.3965497  32.8149644  60.0058070  58.3102827
  31.6215814  59.5257070  57.8351069  32.0309227  60.0053988  58.3010903
  47.8387731  63.1693230  54.4388732  47.5985954  62.3299645  54.4431158
  48.3179738  63.2493397  55.1629505  47.8739915  63.0574630  54.5463534
  43.5034500  59.0027409  46.0907705  42.9757519  59.0856153  45.4013414
  43.9630208  59.7445280  46.0872350  43.4936351  59.1248071  45.9882400
  49.8392918  59.9494687  52.3917991  49.6002688  59.9090521  51.5538775
  50.0026819  60.7965839  52.5183712  49.8283222  60.0686772  52.2871473
  46.4438948  64.3344636  58.3223036  47.1673147  63.8817163  58.1434056
  46.1788911  64.6149302  57.5395364  46.5120222  64.3095605  58.1801751
  35.3125817  58.9304810  55.0575915  34.6878887  58.9423202  54.4501868
  34.9771411  59.4064985  55.7067155  35.1711308  59.0023327  55.0632484
  35.4967565  57.2729929  41.1148600  35.1480370  57.9249654  41.5780149
  35.0164011  57.2587042  40.3872471  35.3737809  57.3672982  41.0759691
  32.0251492  66.9905270  56.4979679  31.4951417  66.2997709  56.5474654
  32.2976585  66.9815455  55.6692388  31.9876214  66.8872402  56.3827095
  43.0571583  67.5730972  45.2217362  43.7805782  68.0389085  45.0781935
  42.6172174  67.6404582  44.4714959  43.0987275  67.6514809  45.0902143
  42.2257738  64.4328515  56.4718051  41.6114731  63.8886565  56.7666686
  42.7425023  63.9192751  55.9923867  42.2113400  64.2764924  56.4442279
  41.4654035  65.5032785  54.2062350  41.0381643  64.8782503  53.7727785
  41.4578979  65.2207707  55.0321357  41.4013176  65.3685565  54.2642177
  34.5816562  60.5397958  57.2750784  34.7410049  59.7841282  57.6802506
  34.4009456  61.0888897  57.9291521  34.5781921  60.5091772  57.4313490
  42.5236865  52.7059193  57.8301573  42.0277426  52.9022868  57.1393140
  43.2805927  53.1051862  57.6590375  42.5623690  52.7936927  57.7021710
  39.7939745  56.3801539  54.4204884  39.8182232  55.8461652  53.7317664
  40.0451218  55.8718848  55.0830474  39.8349663  56.2262443  54.4169528
  27.3047334  63.6633034  53.8548028  27.1990783  63.6179879  52.9900112
  26.5547554  64.0086815  54.1362313  27.1782937  63.7073942  53.7685357
  36.0741067  55.1072358  53.8010628  36.1139438  55.6081564  54.5145335
  35.2490731  55.1982751  53.5316551  35.9580593  55.1954174  53.8661166
  38.2570680  64.6733098  61.9030923  37.4066310  64.8104812  62.0388567
  38.4198807  63.9396876  62.3478624  38.1554543  64.5847199  61.9886522
  37.4955430  61.6232867  56.0984527  36.6647360  61.7906685  55.8919775
  37.4406947  61.2468818  56.8833412  37.3644845  61.5922599  56.1833055
  35.8691474  59.8988459  46.6274645  36.0094435  60.3960923  47.3303286
  36.3674007  59.1974753  46.7688858  35.9632555  59.8690438  46.7526224
  35.8991696  60.7655570  43.9567221  36.5336776  61.3615995  43.8916683
  35.9817307  60.4659028  44.7713092  36.0048247  60.8096478  44.0670308
  48.8774262  63.2971047  56.8253586  49.4692102  63.9368298  56.8571784
  49.3133257  62.5994084  57.1145652  49.0292693  63.2889398  56.8734418
  37.4770679  56.6969545  43.9312663  37.7986520  56.2172628  43.2771926
  37.7397623  57.5069191  43.7403475  37.5636705  56.7459443  43.8068156
  40.7067652  67.7188420  57.4511480  40.1992743  68.2724267  57.8952110
  40.4094298  67.7796710  56.6330254  40.5872537  67.8094731  57.3959936
  42.8729834  56.0841739  56.2936143  43.2984906  55.6314266  55.6819669
  42.2586827  55.5301810  56.5700930  42.8458480  55.9355716  56.2441168
  32.4044684  62.9623411  47.2256767  32.9136914  63.5587918  47.6068073
  32.8778957  62.6949384  46.5433187  32.5488060  63.0109226  47.1811290
  43.3175432  71.6351677  45.3815423  42.6004742  71.4612540  44.9162660
  43.9682170  71.4004250  44.8490909  43.3077283  71.5747470  45.2344641
  45.9023404  60.5116266  49.1256728  45.2314593  61.0545968  48.9969794
  46.5963154  60.9811121  48.8838423  45.9052271  60.6614537  49.0712256
  39.9510137  72.6512978  54.3568486  39.7275792  71.8931807  54.7252513
  39.4619981  72.6810999  53.6348926  39.8453586  72.5435202  54.3045227
  46.0651531  56.9672150  52.0347101  46.4179141  56.5401872  52.7092900
  45.2066333  56.8822993  52.1648178  45.9900976  56.8916890  52.1542112
  34.7635216  59.5979669  50.0929948  34.0447205  60.0143802  50.3602811
  35.1347578  60.1633908  49.5421586  34.7127148  59.7428951  50.0512755
  44.0634797  60.2307518  55.9831944  44.0432724  60.0490813  56.8366722
  44.1113998  61.1019537  55.9591527  44.0669438  60.3324056  56.1055238
  42.0081127  66.8194710  61.9080420  41.9676982  66.1744387  61.3225576
  42.8204445  66.7631328  62.2205832  42.1224280  66.7153677  61.8677369
  38.5988594  72.8713436  51.8105571  38.1848993  72.2087566  51.4209413
  39.2835968  73.0191295  51.2901265  38.6386966  72.7954094  51.6762068
  41.9653888  72.0303521  52.5629188  41.5670172  72.1405792  51.7950008
  41.3505108  72.2385588  53.1455747  41.8152778  72.0777089  52.5360487
  40.5381790  58.6377669  45.4303327  39.9446630  58.9594666  44.8787894
  40.5757068  57.7918765  45.2224433  40.4556180  58.5601997  45.3186099
  43.4139607  58.5957174  48.8605078  43.1853300  58.6189875  48.0183436
  43.6737683  57.7714641  48.9800088  43.4185795  58.4773254  48.7530275
  37.6958835  60.4491647  58.4630178  37.1837738  59.8412830  58.8215209
  37.5238332  61.1648239  58.9304154  37.5948472  60.4654946  58.5846401
  32.5424550  58.8929222  61.1132540  32.3727140  59.5530597  60.5680746
  32.0990500  59.1035783  61.8345029  32.4523884  59.0215204  61.1394169
  36.4684369  57.1333720  50.1559273  36.9441736  57.4950800  49.5209454
  35.9672969  57.7890188  50.4359416  36.4649728  57.2827909  50.1036014
  49.6995731  66.6055488  45.9472278  50.0829337  67.3546844  46.1770375
  48.9039844  66.8521308  45.6884267  49.6389513  66.7525182  45.9429852
  41.5727906  58.3715891  60.9032433  42.1299336  58.1429701  60.2710899
  41.2488971  59.1321557  60.6267646  41.6074316  58.4499728  60.7688930
  29.4426615  61.7976088  56.3721029  28.8953334  61.1276733  56.4901898
  30.2318993  61.4305935  56.4364497  29.4778798  61.6441074  56.3989730
  39.2911023  61.4583545  61.8684440  40.0422350  61.7735221  62.1823995
  39.4833599  61.2562716  61.0418362  39.4302437  61.4750926  61.7927836
  38.5111023  59.2774920  43.5232657  38.8909987  59.2954549  42.7383772
  37.7703619  59.7228909  43.4023505  38.4579860  59.3456694  43.3896225
  46.1396313  57.5857111  49.1108236  46.1390540  57.4305767  49.9692512
  45.9352493  58.4320098  49.0549622  46.1096091  57.6877732  49.2296175
  28.2013584  61.0096895  53.5267052  28.0235345  60.5573504  54.2521968
  27.9132606  61.8123057  53.7105530  28.1326537  61.0619453  53.6610555
  43.8637165  62.2654613  52.7644443  44.3590831  61.5477608  52.7248463
  43.0536941  61.9625410  52.6498930  43.8181058  62.1152259  52.7418169
  39.3095777  66.1152426  44.9141447  38.5007099  65.7919100  44.8674757
  39.8170686  65.4085648  44.8469696  39.2645443  65.9633742  44.8971742
  29.9386054  63.5424619  50.6388812  29.0731573  63.5310310  50.5271583
  30.0384870  63.3554842  51.4859951  29.8260221  63.5130680  50.7477756
  45.9288984  65.0158300  55.4521572  46.3544056  64.4932722  54.8991997
  45.5645904  65.6139138  54.9310195  45.9375587  65.0268527  55.2930581
  35.5643064  73.3122518  54.2118917  35.8789623  74.1258906  54.2196699
  35.9736477  72.9272736  54.8801076  35.6711162  73.3751220  54.3123009
  42.5167584  68.7292564  51.7822729  42.9878762  69.4432827  51.9512714
  42.8527762  68.1291315  52.3182599  42.6362699  68.7464029  51.8855105
  44.6044568  70.3393878  63.9614801  44.7141534  69.5502438  64.3171548
  44.9335465  70.2499814  63.1589139  44.6696974  70.2099731  63.8957192
  39.4337078  53.5020035  58.7380824  39.5664984  52.7051028  59.0661799
  39.8182231  54.0286438  59.3179099  39.5093407  53.4619952  58.8724327
  43.1541530  68.5210499  58.5450422  42.6062476  67.8968382  58.2770487
  43.6154559  68.7104771  57.8294501  43.1408739  68.4569549  58.4000853
  45.9635394  56.5895853  55.9301614  45.3798383  57.0905060  55.5179181
  46.2839688  56.0825409  55.2965937  45.9248570  56.5887688  55.7760121
  38.5030193  55.5036448  46.2060289  39.3245888  55.6734761  45.9641984
  38.0399844  55.6583709  45.4826586  38.5561356  55.5518181  46.0631933
  37.0925525  53.4979210  56.9858718  37.6369938  53.1570337  57.5763059
  37.1462461  54.3564672  57.1280002  37.1814645  53.5734469  57.0940591
  32.9056084  67.2595626  53.8597525  33.5100941  67.2191460  53.2311346
  32.6983397  68.1066778  53.8901581  32.9644981  67.3783629  53.7713642
  42.7199856  69.5261571  55.0759763  43.5398230  69.3824537  55.3376058
  42.4393934  70.1507770  55.6176201  42.7996600  69.5971923  55.1947702
  28.1407366  66.2430244  53.7296449  28.0431644  65.4326515  54.0386505
  28.9236236  66.2222037  53.3442717  28.2423503  66.1197334  53.7183312
  59.1913507  77.1826423  48.0402639  59.1607511  78.0371060  48.2120909
  59.7894855  76.8821716  48.5988783  59.2750664  77.2642920  48.1477442
  52.3913191  76.2702074  52.7955570  51.5351087  76.4310572  52.8464686
  52.4380845  75.3994138  52.8160631  52.2712303  76.1652876  52.8061636
  55.2365012  78.3294118  55.4387221  55.7820972  79.0079205  55.4981191
  55.1781889  78.1881579  54.5788803  55.3080927  78.4086120  55.3199282
  57.0130081  79.7578725  46.3120949  56.8969607  80.5086411  46.7413087
  57.8085968  79.5002678  46.5617036  57.1134670  79.8313572  46.4125041
  43.8494219  74.0089201  53.3492215  43.2299251  73.4181848  53.1802230
  43.7478083  74.6000636  52.7156538  43.7431895  74.0093284  53.2297205
  48.8960407  83.7472748  47.5990291  49.2176248  84.2877955  46.9951600
  49.5432503  83.1769519  47.7312581  49.0386462  83.7431923  47.5297327
  50.9462115  75.7488743  47.6824678  51.6442279  75.9276871  48.1746141
  51.2614447  75.2259082  47.0595068  51.0957452  75.6982515  47.6626688
  43.5763352  77.5541483  55.5935784  43.4522049  78.1403928  56.2285603
  44.2281637  77.0601679  55.8948059  43.6537001  77.5680287  55.7321713
  51.1350050  82.1359188  47.6704470  51.5743686  81.5276289  48.1159242
  50.9854713  81.7566561  46.8989935  51.1771516  81.9897659  47.6223637
  48.6021693  80.7303200  54.8723295  49.2470696  80.2375643  54.5534244
  48.8423470  80.8727987  55.6989373  48.7332278  80.6780642  54.9472828
  51.1407784  83.5758106  54.5230188  51.4231027  82.7809512  54.3016944
  51.8693945  84.0538693  54.5435249  51.2897348  83.5292703  54.4933203
  49.1188978  71.1181140  51.7645953  48.7892308  71.5692283  51.0949652
  48.4433980  71.0397303  52.3118959  48.9699415  71.1732275  51.7469176
  54.7359387  80.4886369  44.6235239  54.6510682  81.3447336  44.7684808
  55.2243770  80.2130693  45.2917398  54.7948284  80.5743691  44.7437320
  56.3265386  67.1066663  50.0095563  56.0118827  67.7970141  50.4415986
  55.8092328  67.0511445  49.3081064  56.2029856  67.2001551  49.9692513
  55.6677820  77.1071164  46.1232974  55.1389291  77.3230797  46.7830280
  56.1902840  77.8007302  46.0433943  55.6666273  77.2414300  46.2088573
  47.5577428  81.0034380  44.9240442  46.9734643  81.5084412  45.3306306
  47.1547523  80.7776767  44.1837034  47.4116731  81.0442629  44.8745467
  52.0154642  77.2500032  43.4009363  52.2550646  77.4578016  42.5884706
  52.3370483  76.4457541  43.5098307  52.0991800  77.1614134  43.2969916
  47.3244932  69.1793428  47.2468901  48.0790900  69.5471745  47.0085951
  47.1472467  69.5532982  48.0148080  47.4099411  69.2891616  47.3253789
  60.6179831  75.3287869  55.2916440  59.7808252  75.3990056  55.5264034
  60.5868062  75.3312363  54.4190742  60.4898113  75.3398096  55.1975988
  47.0144560  77.4720904  61.0064808  47.1865064  77.3626799  61.8550090
  47.5513918  78.1175310  60.7696001  47.1189564  77.5512906  61.0969905
  45.6801997  71.5863747  43.9447014  45.4977570  71.8035628  43.1188006
  46.5427610  71.7002760  44.0005628  45.7806586  71.6353645  43.8301501
  51.3601716  68.5890158  46.9796037  52.0887877  68.4106113  46.5334194
  51.4496609  69.4308238  47.1903215  51.4808378  68.6874036  46.9449555
  55.3410017  79.5243545  50.8828331  56.0967532  79.9575060  50.9217240
  55.4472341  78.8748315  51.4562967  55.4680187  79.4921029  50.9726357
  41.3206277  80.0652835  55.8417728  41.0544692  79.2491952  56.0008719
  41.3344841  80.1105991  54.9713244  41.2830999  79.9509740  55.7371210
  58.2987671  70.3930650  53.8760162  58.9413579  70.4628755  54.4622077
  58.5510692  69.7259873  53.3739704  58.4309803  70.3056999  53.8887441
  45.2264024  74.8637920  42.4569487  44.5122201  74.5776099  42.8691919
  45.7107993  75.2034546  43.0975874  45.1923387  74.8719569  42.6125121
  46.0704883  73.6031214  58.4884736  45.3776680  73.1328193  58.7345468
  46.6865211  73.3769518  59.0626443  46.0589413  73.4998345  58.6093889
  52.4011342  83.3667874  42.8331295  52.8162490  83.0352898  42.1415791
  51.5703271  83.1336776  42.7051431  52.3399351  83.2839130  42.7122142
  41.7299691  80.8511615  53.1229473  41.5475264  80.8258501  52.2701765
  42.4649360  81.3210553  53.1618381  41.8113755  80.9172977  53.0027391
  57.7999365  81.0863125  50.2662360  58.0354954  81.2308324  49.4389211
  57.9488928  81.8505533  50.6593874  57.8565168  81.2202179  50.2025964
  44.7945442  77.5696618  59.6311581  45.5185415  77.5549648  60.1176476
  44.8961579  78.2791973  59.1333550  44.9163651  77.6721321  59.6290368
  59.6289822  79.9264791  48.1031964  59.9598039  80.4592431  47.4972059
  60.2022910  79.9803678  48.7593915  59.7623501  80.0134359  48.1109746
  54.8421711  77.7729693  48.7855544  54.9368565  78.5118987  49.2395170
  54.2180554  77.3447169  49.2190109  54.7630741  77.8191014  48.9163692
  41.6970601  77.7305115  53.2728539  42.2744104  77.5941566  53.9120785
  40.9984663  77.2740900  53.5274124  41.6791622  77.6427382  53.4050829
  55.0944732  79.6178433  42.0192496  55.0124895  79.6880620  42.8847483
  55.7324452  80.1808177  41.8276237  55.1764569  79.7117404  42.1182446
  48.4537903  79.3839171  51.4867023  48.1957147  78.5510906  51.4598322
  48.5086386  79.6096784  50.6459523  48.4237681  79.2936942  51.3587159
  53.5338953  71.4867622  51.5871115  52.8295280  70.9976807  51.7455034
  53.5823928  71.4990096  50.7159560  53.4369005  71.4157270  51.4810455
  47.4272615  76.9376934  51.9731917  46.8522207  77.0969102  52.6095878
  47.0508292  76.3012343  51.5100368  47.2875428  76.8674746  51.9986476
  51.0945904  75.4100283  56.8324296  50.7060337  74.9854501  56.1776487
  50.4300602  75.6582432  57.3401322  50.9392832  75.3839004  56.8112164
  60.7369173  75.1675288  49.6072126  60.4805738  74.3555229  49.4170009
  61.5798487  75.1752855  49.3802313  60.8235198  75.0487285  49.5456943
  37.1729434  76.5817008  49.9876358  37.2589686  76.2048877  50.7689888
  37.8005232  76.2077454  49.5096316  37.2785985  76.4702490  50.0321835
  54.9172265  69.1074912  54.3448280  55.2982777  68.4253083  54.7316154
  54.1135550  68.8184514  54.1623944  54.8548727  68.9641960  54.3752336
  52.1984842  79.6398887  45.0301103  53.0125481  79.9313780  44.9183874
  52.1343983  78.9858750  44.4559396  52.3087581  79.5864082  44.9289940
  48.0692750  83.1120405  50.1573415  48.7066697  82.8732152  50.7025208
  48.4947822  83.3157564  49.4226575  48.2268917  83.1071415  50.1290572
  48.7095565  78.3322695  44.4948304  49.0940718  78.1130401  45.2464849
  48.4607186  79.1585640  44.6249381  48.7297638  78.4220841  44.6249381
  48.8764106  71.6129110  64.2110888  48.5617547  72.3828673  63.9480451
  48.5554038  71.0499366  63.6263115  48.7823025  71.6439379  64.0852238
  50.4514222  83.5892827  51.8367201  50.5253231  83.4267999  52.6909051
  51.2683729  83.7783017  51.5927683  50.5830581  83.5929570  51.9265227
  46.4296003  70.0019631  49.8257085  45.5618428  70.0742231  49.8914694
  46.7171207  70.8041710  50.0145060  46.3435751  70.1313778  49.8631851
  55.5528892  70.1497491  58.1568407  56.2982484  69.9607301  57.7431832
  55.1366196  70.6755729  57.5982263  55.6013866  70.1999636  58.0132980
  62.9291162  77.5206719  53.1073911  63.4799084  76.8874788  53.3471004
  62.9135278  78.0522112  53.7989416  63.0076359  77.5055667  53.2452770
  49.5813553  81.3545316  57.6533805  49.0825247  82.0661084  57.7318693
  50.3913778  81.6745983  57.6151967  49.6269660  81.5072165  57.6590373
  45.8441671  80.6168269  51.8996526  45.5554920  79.9905741  52.4342253
  46.7125019  80.5588557  51.9661206  45.9301923  80.5155814  51.9887480
  56.6319569  75.7603053  52.2178508  56.2884335  75.0393388  52.5685757
  56.7312611  75.5516904  51.3756866  56.5961612  75.6227256  52.1450188
  46.0473944  82.2563521  47.8238891  46.8019912  82.6376560  48.0374353
  45.4544557  82.7074664  48.2785587  46.0710658  82.3792348  47.9221769
  48.5080611  74.2126361  62.9496103  47.6980387  74.5184141  62.8385945
  48.9855298  74.9331943  63.0648687  48.4584090  74.3640962  62.9503174
  47.3672171  83.4272082  53.1979006  46.8452924  83.5672374  53.8830871
  47.7546191  82.6682746  53.3881124  47.3475872  83.3357606  53.3280083
  44.3563355  73.4777891  47.2673961  44.0688151  73.1079161  46.5305908
  45.0433823  73.9472746  47.0057666  44.4152252  73.4924860  47.1189037
  48.7938496  80.4576101  48.5960497  48.5981279  81.0650835  48.0020800
  49.0172842  79.7644045  48.1152171  48.7973138  80.4453626  48.4376578
  47.1917027  77.3430839  48.7141366  47.9139678  77.5071997  48.2545172
  46.7125019  78.0640504  48.6080705  47.2280757  77.4729068  48.6306980
  55.1510534  73.6794638  54.0938051  54.3121635  73.7055917  53.8576314
  55.2214901  74.3265373  54.6743397  55.0378928  73.7790763  54.1447167
  44.8424643  79.7488911  57.8195506  45.3545740  80.0273165  57.1704265
  44.5560986  80.4878205  58.1858319  44.8759506  79.8991265  57.7785384
  53.5979812  70.5780015  48.8265667  54.3006165  70.3787763  48.3485625
  53.3324001  69.8055957  49.1334510  53.6626445  70.4342981  48.8011108
  59.0268058  78.8862624  51.3799292  58.9402032  79.0418050  52.2334071
  58.5718538  79.5300700  51.0058697  58.9471315  79.0038379  51.4506399
  41.9291550  74.2559103  48.1159242  42.0307686  75.0585264  48.4440217
  42.7247436  74.0546439  47.8182323  42.0619455  74.3445002  48.1194597
  48.3608369  71.8415300  57.8796547  48.1691566  71.8570434  58.7295971
  49.2106965  72.0378974  57.8563202  48.4584091  71.8729651  58.0019842
  42.7455282  74.3706281  55.8580364  42.6040773  73.5190222  55.9824872
  43.0295845  74.4134942  55.0342570  42.7663128  74.2506031  55.7547988
  52.8993874  76.2073371  50.0024852  52.6528588  76.1269122  50.8361641
  53.2278997  75.4226839  49.8087379  52.9115118  76.0799637  50.0972375
  48.8590901  78.9430090  59.4147835  49.0034277  79.5231298  58.7790945
  49.2066550  79.3206387  60.1197690  48.9318363  79.0850794  59.4246830
  51.0310819  78.1420258  57.1972967  50.2834133  78.3351273  56.7921245
  51.1852344  77.3165478  56.9597088  50.9433246  78.0485370  57.1018372
  51.2712596  72.0370809  58.0868370  51.7285210  72.7694783  58.2141162
  51.3468924  71.6137274  58.8455626  51.3503566  72.0828047  58.2169447
  43.5145587  72.2836629  59.1757814  42.9787776  71.6716987  59.4918581
  43.5763352  72.8584765  59.8291481  43.4441220  72.2783557  59.3193241
  55.7439922  65.2160684  51.9562213  55.8623490  65.6737148  51.2229516
  55.5702097  64.4105946  51.6698431  55.7359093  65.1654456  51.8063147
  49.1494974  74.0272913  54.9310194  48.3591048  73.8464373  55.2527530
  49.5455596  73.2499866  54.9140489  49.0911850  73.8860374  54.9762743
  53.6360864  82.8560687  40.3716908  54.4033849  82.9160812  39.9622760
  53.1892173  82.2841129  39.8873226  53.6834292  82.7797263  40.2394618
  54.5338660  81.6615343  52.6569640  53.8583662  81.4300575  53.1583027
  54.5431036  81.0536526  52.0311745  54.4357164  81.5374268  52.6385792
  51.6632804  76.5033172  59.4133693  51.5991945  77.3643129  59.2853830
  51.8029992  76.1865165  58.6129244  51.6748274  76.5833339  59.2761906
  50.3451898  79.1965312  53.5549896  49.9214147  79.3969811  52.8188914
  50.1696753  78.3494160  53.6674196  50.2562778  79.1014093  53.4623586
  45.6334343  79.6917363  48.9877869  45.7898962  79.6264166  49.8433861
  45.9734936  80.4665916  48.7756548  45.7067578  79.7966561  49.0832463
  52.1713487  79.0675247  47.8571232  52.7129033  78.5645628  48.3209852
  52.4860046  79.0140441  47.0460717  52.2977884  78.9854668  47.8055044
  50.3399937  84.4592598  45.1411260  50.4092757  83.6007137  45.2804260
  51.1188392  84.6764479  44.8130284  50.4652787  84.3645462  45.1128417
  53.3202757  73.9611551  57.9093532  53.5344726  73.3222465  57.3556886
  52.7036656  74.4057375  57.4801394  53.2608086  73.9321695  57.7643963
  42.2068604  76.8752313  49.3038636  42.5867569  77.2936858  48.6398903
  41.6323969  77.4565769  49.6107479  42.1779929  77.0230172  49.2515377
  55.4841845  75.5700616  58.8476839  54.6718526  75.2626507  58.9290012
  55.9431779  75.0899616  59.4119552  55.4322229  75.4537109  58.9431434
  54.8947099  83.4480288  49.2953784  54.5361754  83.6194931  50.0717816
  54.4085810  83.9093494  48.7381782  54.7705796  83.5419259  49.3279053
  52.7117485  67.0711487  52.8980875  51.8411043  67.0450208  52.8514185
  52.9657827  66.8988679  52.0806721  52.6211045  67.0421630  52.7701012
  49.6835465  79.1279454  41.8354018  49.9727990  79.9044336  42.1097592
  49.7707264  78.6168185  42.5368517  49.7389721  79.1671372  41.9796516
  49.7366626  69.0817715  54.3554345  49.2205114  68.3897907  54.4805924
  49.1760555  69.7488492  54.3016944  49.5773139  69.0780973  54.3660411
  51.8058859  69.6210675  56.1847198  51.4190612  69.6459707  56.9660728
  51.3191797  69.0552354  55.7321715  51.6771368  69.5406426  56.2335102
  57.7808839  76.1873330  54.8086900  57.3536447  76.0999679  54.0535000
  57.1434892  76.2951106  55.3941744  57.6238446  76.1905990  54.7832342
  51.4716001  66.5077661  58.4757458  52.1009119  67.0437961  58.1978528
  51.6401864  66.4155020  59.3271024  51.5893796  66.5739023  58.5605986
  51.2729916  71.2948855  60.7483870  52.1003345  71.0234004  60.8042484
  51.2937762  72.0909697  61.1047688  51.3982766  71.3728610  60.8099052
  45.8499406  78.4412718  53.9354130  45.0087412  78.3416592  54.1433024
  46.0589414  79.2108199  54.2868451  45.7564098  78.5404762  54.0181445
  43.3274973  76.0632255  51.7638881  42.9331670  76.1375267  50.9888991
  42.7715090  76.4490202  52.3147243  43.1877785  76.1314030  51.7306541
  54.9639919  69.0413549  51.4442760  55.1689513  68.9735857  52.2899757
  54.6366343  69.8472370  51.3763937  54.9455167  69.1499490  51.5602415
  49.6616071  76.3694117  53.1851728  49.3579208  75.8150106  53.7862135
  48.9595491  76.5486327  52.6979762  49.5132280  76.3138900  53.2021433
  48.7182168  73.6794637  47.7496430  48.9941902  72.9613550  47.3373997
  49.3180837  74.2779557  47.5417536  48.8475432  73.6615008  47.6577191
  58.2173607  69.5945313  50.9245525  57.6047921  70.0815716  51.3099257
  58.3137782  68.9188804  51.4683176  58.1411505  69.5663622  51.0624383
  52.2192688  71.3508155  46.0243025  52.6736435  71.5218715  46.7490869
  52.6932734  70.7376265  45.6240800  52.3561008  71.2859040  46.0716786
  45.7408214  80.8356481  55.3545763  45.1496147  81.4765979  55.3248778
  46.5029237  81.2594098  55.3277063  45.7656474  80.9932319  55.3460910
  46.1368836  71.9958478  56.0213781  46.5970318  72.0697408  56.7588904
  46.1824943  72.7939732  55.6713602  46.2119392  72.1252625  56.0786537
  47.7852186  72.6625173  60.5885808  47.3937751  72.0158520  61.0241586
  47.9538049  73.2536608  61.2080063  47.7523096  72.6539441  60.7448514
  49.5605708  78.0550689  47.1288032  50.3047753  78.4424965  47.3670982
  49.7066404  77.2108114  47.2928520  49.6916293  77.9881162  47.1882002
  51.4785284  69.8500948  52.1619893  50.6321329  70.0223756  52.0361243
  51.4756416  69.0450292  52.4985722  51.3532434  69.7561977  52.1931020
  52.5483584  73.6276162  53.0281951  52.0743538  73.1017924  53.5387262
  52.9201720  73.0805635  52.4596813  52.5333473  73.4692159  53.0197098
  42.9256614  75.6247669  58.3965497  43.7882227  75.5243378  58.3102827
  42.5948397  75.0442378  57.8351069  43.0041811  75.5239296  58.3010903
  58.8120315  78.6878538  54.4388732  58.5718538  77.8484953  54.4431158
  59.2912322  78.7678705  55.1629505  58.8472498  78.5759938  54.5463534
  54.4767084  74.5212717  46.0907705  53.9490102  74.6041461  45.4013414
  54.9362792  75.2630588  46.0872350  54.4668934  74.6433379  45.9882400
  60.8125502  75.4679995  52.3917991  60.5735272  75.4275829  51.5538775
  60.9759403  76.3151147  52.5183712  60.8015805  75.5872080  52.2871473
  46.2858400  74.4490118  55.0575915  45.6611470  74.4608510  54.4501868
  45.9503995  74.9250293  55.7067155  46.1443892  74.5208635  55.0632484
  46.4700149  72.7915236  41.1148600  46.1212953  73.4434962  41.5780149
  45.9896595  72.7772349  40.3872471  46.3470393  72.8858290  41.0759691
  54.0304166  83.0916280  45.2217362  54.7538365  83.5574393  45.0781935
  53.5904757  83.1589890  44.4714959  54.0719858  83.1700117  45.0902143
  53.1990321  79.9513823  56.4718051  52.5847314  79.4071873  56.7666686
  53.7157606  79.4378059  55.9923867  53.1845984  79.7950232  56.4442279
  52.4386618  81.0218093  54.2062350  52.0114227  80.3967811  53.7727785
  52.4311563  80.7393015  55.0321357  52.3745760  80.8870873  54.2642177
  45.5549146  76.0583266  57.2750784  45.7142632  75.3026590  57.6802506
  45.3742039  76.6074205  57.9291521  45.5514505  76.0277080  57.4313490
  53.4969449  68.2244501  57.8301573  53.0010010  68.4208176  57.1393140
  54.2538511  68.6237170  57.6590375  53.5356273  68.3122235  57.7021710
  50.7672328  71.8986847  54.4204884  50.7914815  71.3646960  53.7317664
  51.0183802  71.3904156  55.0830474  50.8082247  71.7447751  54.4169528
  38.2779918  79.1818342  53.8548028  38.1723367  79.1365187  52.9900112
  37.5280138  79.5272123  54.1362313  38.1515521  79.2259250  53.7685357
  47.0473650  70.6257665  53.8010628  47.0872022  71.1266872  54.5145335
  46.2223315  70.7168059  53.5316551  46.9313176  70.7139482  53.8661166
  48.4688014  77.1418175  56.0984527  47.6379943  77.3091993  55.8919775
  48.4139531  76.7654126  56.8833412  48.3377429  77.1107907  56.1833055
  46.2771797  70.6327068  61.7340938  46.9024500  70.0889201  62.0070370
  45.8222277  70.1521986  61.1648728  46.3020058  70.4816550  61.6902531
  46.8424058  75.4173767  46.6274645  46.9827019  75.9146231  47.3303286
  47.3406590  74.7160061  46.7688858  46.9365139  75.3875746  46.7526224
  46.8724280  76.2840878  43.9567221  47.5069359  76.8801303  43.8916683
  46.9549891  75.9844335  44.7713092  46.9780831  76.3281786  44.0670308
  48.4503263  72.2154853  43.9312663  48.7719104  71.7357936  43.2771926
  48.7130207  73.0254499  43.7403475  48.5369288  72.2644751  43.8068156
  53.8462418  71.6027047  56.2936143  54.2717489  71.1499574  55.6819669
  53.2319411  71.0487118  56.5700930  53.8191063  71.4541023  56.2441168
  43.3777268  78.4808719  47.2256767  43.8869497  79.0773226  47.6068073
  43.8511540  78.2134692  46.5433187  43.5220644  78.5294534  47.1811290
  52.2856641  68.0742147  49.7026720  51.6424959  67.9239793  50.2711858
  51.9456048  67.8284492  48.9375824  52.1401718  68.0154270  49.6729735
  56.8755987  76.0301574  49.1256728  56.2047177  76.5731276  48.9969794
  57.5695737  76.4996429  48.8838423  56.8784855  76.1799845  49.0712256
  57.0384115  72.4857457  52.0347101  57.3911725  72.0587180  52.7092900
  56.1798916  72.4008301  52.1648178  56.9633559  72.4102198  52.1542112
  45.7367800  75.1164977  50.0929948  45.0179789  75.5329110  50.3602811
  46.1080162  75.6819216  49.5421586  45.6859731  75.2614259  50.0512755
  55.0367380  75.7492826  55.9831944  55.0165308  75.5676121  56.8366722
  55.0846581  76.6204845  55.9591527  55.0402021  75.8509364  56.1055238
  51.5114374  74.1562977  45.4303327  50.9179213  74.4779974  44.8787894
  51.5489652  73.3104072  45.2224433  51.4288763  74.0787305  45.3186099
  58.4708175  67.6075869  52.9631414  57.9639039  66.9005009  52.8952591
  59.2675608  67.2769058  53.0932490  58.5135414  67.4549021  52.9730409
  54.3872191  74.1142482  48.8605078  54.1585884  74.1375183  48.0183436
  54.6470267  73.2899949  48.9800088  54.3918379  73.9958562  48.7530275
  48.6691419  75.9676955  58.4630178  48.1570322  75.3598138  58.8215209
  48.4970915  76.6833547  58.9304154  48.5681056  75.9840254  58.5846401
  43.5157134  74.4114530  61.1132540  43.3459724  75.0715905  60.5680746
  43.0723084  74.6221091  61.8345029  43.4256467  74.5400512  61.1394169
  47.4416953  72.6519028  50.1559273  47.9174319  73.0136108  49.5209454
  46.9405553  73.3075495  50.4359416  47.4382312  72.8013217  50.1036014
  52.5460489  73.8901199  60.9032433  53.1031919  73.6615009  60.2710899
  52.2221554  74.6506865  60.6267646  52.5806899  73.9685036  60.7688930
  40.4159198  77.3161395  56.3721029  39.8685918  76.6462041  56.4901898
  41.2051576  76.9491243  56.4364497  40.4511382  77.1626382  56.3989730
  49.4843606  74.7960228  43.5232657  49.8642571  74.8139857  42.7383772
  48.7436202  75.2414216  43.4023505  49.4312444  74.8642002  43.3896225
  57.1128897  73.1042419  49.1108236  57.1123123  72.9491075  49.9692512
  56.9085077  73.9505406  49.0549622  57.0828675  73.2063040  49.2296175
  39.1746168  76.5282203  53.5267052  38.9967929  76.0758812  54.2521968
  38.8865190  77.3308365  53.7105530  39.1059121  76.5804761  53.6610555
  54.8369749  77.7839921  52.7644443  55.3323414  77.0662916  52.7248463
  54.0269525  77.4810718  52.6498930  54.7913642  77.6337567  52.7418169
  50.2828360  81.6337734  44.9141447  49.4739683  81.3104407  44.8674757
  50.7903269  80.9270956  44.8469696  50.2378027  81.4819050  44.8971742
  40.9118638  79.0609927  50.6388812  40.0464157  79.0495618  50.5271583
  41.0117453  78.8740150  51.4859951  40.7992805  79.0315988  50.7477756
  56.9021568  80.5343608  55.4521572  57.3276639  80.0118030  54.8991997
  56.5378487  81.1324446  54.9310195  56.9108170  80.5453835  55.2930581
  53.4900167  84.2477872  51.7822729  53.9611345  84.9618135  51.9512714
  53.8260346  83.6476623  52.3182599  53.6095282  84.2649337  51.8855105
  50.4069662  69.0205343  58.7380824  50.5397568  68.2236336  59.0661799
  50.7914815  69.5471746  59.3179099  50.4825991  68.9805260  58.8724327
  53.4802017  65.9435669  55.3361917  52.6747981  65.8333399  55.6529755
  53.3508753  66.0448125  54.4791783  53.3422150  65.9419339  55.2569957
  56.9367978  72.1081161  55.9301614  56.3530967  72.6090368  55.5179181
  57.2572272  71.6010717  55.2965937  56.8981153  72.1072996  55.7760121
  49.4762777  71.0221756  46.2060289  50.2978471  71.1920069  45.9641984
  49.0132428  71.1769017  45.4826586  49.5293939  71.0703489  46.0631933
  48.0658109  69.0164518  56.9858718  48.6102522  68.6755645  57.5763059
  48.1195045  69.8749980  57.1280002  48.1547228  69.0919777  57.0940591
  25.9666580   7.5648630  34.9742686  25.9360584   8.4193267  35.1460955
  26.5647928   7.2643923  35.5328830  26.0503738   7.6465127  35.0817488
  19.1666265   6.6524281  39.7295616  18.3104160   6.8132780  39.7804733
  19.2133918   5.7816345  39.7500677  19.0465376   6.5475083  39.7401682
  13.5507404  16.1886999  35.4932848  12.7990304  15.8102538  35.2648893
  13.9993416  16.2205433  34.7451658  13.5057071  16.1372606  35.3490350
  22.4759981  12.9210807  49.3356073  23.1826748  12.4262838  49.4643007
  22.6647917  13.3619889  48.6058731  22.6087887  12.9129157  49.2465118
  19.0032364  16.6112369  30.9218395  18.6683733  17.2889290  30.4862617
  19.5159235  16.2217680  30.3335267  19.0297945  16.6536947  30.7705187
  18.5436655  18.5626638  36.8629507  18.9276035  19.1313536  36.3234282
  18.4795797  17.8376148  36.3835323  18.5910083  18.5402101  36.7123369
  22.0118086   8.7116325  42.3727268  22.5574046   9.3901412  42.4321238
  21.9534962   8.5703786  41.5128850  22.0834000   8.7908327  42.2539329
  15.1292160  16.2005391  37.7595621  15.2302523  15.3905745  38.0692748
  14.5333906  16.1062338  37.1295299  15.0564699  16.0670420  37.7121859
  23.7883154  10.1400932  33.2460996  23.6722680  10.8908619  33.6753134
  24.5839041   9.8824886  33.4957083  23.8887744  10.2135779  33.3465088
  14.9692900  21.1182981  39.1610477  15.6130356  21.5596145  39.5506635
  15.2949156  20.3136407  39.0740735  15.1124729  21.0648175  39.2055954
   8.3257205  12.2225678  37.3847954   8.0907389  11.3893330  37.2780223
   8.4642845  12.5030344  36.5709155   8.3112867  12.1409181  37.2490309
  15.6713480  14.1294955  34.5330338  15.9929321  14.6700163  33.9291646
  16.3185576  13.5591727  34.6652628  15.8139535  14.1254131  34.4637374
  17.7215188   6.1310950  34.6164725  18.4195353   6.3099078  35.1086188
  18.0367520   5.6081290  33.9935114  17.8710525   6.0804723  34.5966735
  10.3516425   7.9363690  42.5275831  10.2275122   8.5226136  43.1625650
  11.0034710   7.4423886  42.8288106  10.4290075   7.9502495  42.6661760
  17.9103123  12.5181395  34.6044516  18.3496759  11.9098496  35.0499289
  17.7607786  12.1388769  33.8329981  17.9524589  12.3719867  34.5563684
  15.3774766  11.1125407  41.8063342  16.0223769  10.6197850  41.4874290
  15.6176543  11.2550194  42.6329420  15.5085351  11.0602849  41.8812875
  17.9160858  13.9580313  41.4570235  18.1984100  13.1631719  41.2356990
  18.6447018  14.4360901  41.4775296  18.0650421  13.9114910  41.4273250
  21.5112460  10.8708577  31.5575286  21.4263755  11.7269543  31.7024855
  21.9996843  10.5952901  32.2257445  21.5701357  10.9565898  31.6777367
  23.1018459  -2.5111130  36.9435610  22.7871900  -1.8207651  37.3756033
  22.5845401  -2.5666348  36.2421111  22.9782930  -2.4176241  36.9032559
  22.4430893   7.4893371  33.0573021  21.9142364   7.7053004  33.7170327
  22.9655913   8.1829509  32.9773990  22.4419346   7.6236508  33.1428620
  14.3330501  11.3856588  31.8580489  13.7487716  11.8906619  32.2646353
  13.9300596  11.1598975  31.1177081  14.1869805  11.4264836  31.8085514
   9.8874529  17.1011349  38.6604160   9.4042108  17.8261838  38.6363744
  10.6997848  17.3987479  38.7714318   9.9365277  17.2513703  38.6731440
  15.9588683  15.8943530  41.2653975  15.4415625  15.5350945  40.6615283
  16.6563075  15.3705704  41.2760041  15.9854265  15.7641217  41.1784233
  19.6152275  16.3438344  47.2270148  19.7035621  16.1564484  48.0748358
  20.0441988  15.6975773  46.8274995  19.6914378  16.2201351  47.2941899
  17.1822735  15.6269504  46.2087810  16.6193570  15.2142113  46.7327471
  17.9443759  15.5522409  46.6280953  17.2117184  15.5546904  46.3480810
  18.7907715   7.6322240  30.3349409  19.0303719   7.8400224  29.5224753
  19.1123556   6.8279748  30.4438354  18.8744873   7.5436341  30.2309962
  12.7418727  17.6167525  38.8124440  13.4439306  17.1019514  38.8697197
  12.6616210  17.9441676  39.6171315  12.8342487  17.5881751  38.9397232
  27.3932904   5.7110076  42.2256487  26.5561325   5.7812263  42.4604081
  27.3621135   5.7134571  41.3530789  27.2651187   5.7220303  42.1316035
  13.7897633   7.8543112  47.9404855  13.9618137   7.7449006  48.7890137
  14.3266991   8.4997517  47.7036048  13.8942637   7.9335113  48.0309952
  12.0669502  13.8073877  38.3210048  12.9058402  14.0396810  38.3683810
  12.0981271  12.9378188  38.2517084  12.1951220  13.7130823  38.3174693
  12.6922205  14.2274752  42.6223354  13.2320430  14.0845883  43.2926726
  12.0092151  14.6271503  42.9907380  12.6714359  14.2654423  42.7757775
  22.1163090   9.9065753  37.8168378  22.8720605  10.3397267  37.8557287
  22.2225414   9.2570522  38.3903014  22.2433261   9.8743236  37.9066404
  19.7272335  15.7747363  49.8913931  20.5112751  15.8878210  50.2569674
  19.5268929  14.9488500  50.0872617  19.8138360  15.6694082  49.9748317
   8.0959350  10.4475043  42.7757775   7.8297765   9.6314159  42.9348766
   8.1097914  10.4928198  41.9053291   8.0584073  10.3331947  42.6711257
  25.0740744   0.7752858  40.8100209  25.7166652   0.8450962  41.3962124
  25.3263765   0.1082081  40.3079751  25.2062876   0.6879206  40.8227488
  12.0017097   5.2460127  29.3909533  11.2875274   4.9598307  29.8031966
  12.4861066   5.5856753  30.0315921  11.9676460   5.2541777  29.5465168
  19.8842728  17.6857465  43.5380387  19.0857974  17.4456965  43.7954256
  20.3328740  17.7371858  44.2847435  19.8317339  17.6579856  43.6865311
  28.2887607  10.4519950  37.4590418  28.9504041   9.8910618  37.3586327
  27.6479019   9.9571980  37.7843109  28.2916475  10.2956359  37.4922759
  19.1764415  13.7490081  29.7671342  19.5915564  13.4175105  29.0755837
  18.3456345  13.5158983  29.6391478  19.1152424  13.6661337  29.6462189
   8.5052764  11.2333822  40.0569520   8.3228337  11.2080708  39.2041812
   9.2402433  11.7032760  40.0958428   8.5866828  11.2995184  39.9367438
  24.5752438  11.4685332  37.2002407  24.8108027  11.6130531  36.3729258
  24.7242002  12.2327740  37.5933921  24.6318241  11.6024386  37.1366011
  11.5698516   7.9518825  46.5651628  12.2938488   7.9371856  47.0516523
  11.6714652   8.6614180  46.0673596  11.6916725   8.0543528  46.5630415
  26.4042895  10.3086998  35.0372011  26.7351112  10.8414638  34.4312106
  26.9775983  10.3625886  35.6933962  26.5376574  10.3956567  35.0449793
  18.9443465  11.4317910  51.4300575  18.1516446  11.7461421  51.6153195
  19.0592392  11.6469378  50.5921360  18.8438875  11.5101746  51.3338910
  21.6174784   8.1551901  35.7195591  21.7121638   8.8941195  36.1735217
  20.9933627   7.7269376  36.1530156  21.5383814   8.2013221  35.8503739
  19.8727258  11.3338113  46.3685872  20.4466119  10.6965358  46.5234436
  19.7942061  11.3342196  45.4995530  19.9460493  11.2403225  46.2632283
   8.4723674   8.1127323  40.2068586   9.0497177   7.9763774  40.8460831
   7.7737736   7.6563107  40.4614170   8.4544696   8.0249589  40.3390876
  21.8697805  10.0000641  28.9532543  21.7877968  10.0702828  29.8187530
  22.5077526  10.5630384  28.7616284  21.9517643  10.0939612  29.0522493
  15.2290976   9.7661378  38.4207069  14.9710221   8.9333113  38.3938369
  15.2839459   9.9918991  37.5799570  15.1990754   9.6759150  38.2927206
  20.3092027   1.8689829  38.5211162  19.6048353   1.3799015  38.6795081
  20.3577001   1.8812304  37.6499606  20.2122078   1.7979477  38.4150502
  14.2025689   7.3199141  38.9071964  13.6275280   7.4791309  39.5435925
  13.8261365   6.6834550  38.4440415  14.0628501   7.2496954  38.9326523
  17.8698977   5.7922490  43.7664343  17.4813410   5.3676708  43.1116534
  17.2053676   6.0404640  44.2741369  17.7145905   5.7661211  43.7452210
  27.5122246   5.5497495  36.5412173  27.2558811   4.7377436  36.3510055
  28.3551560   5.5575062  36.3142360  27.5988272   5.4309492  36.4796990
  21.6925339  -0.5102881  41.2788327  22.0735850  -1.1924710  41.6656201
  20.8888623  -0.7993279  41.0963991  21.6301800  -0.6535833  41.3092383
  18.9737915  10.0221095  31.9641150  19.7878554  10.3135988  31.8523921
  18.9097057   9.3680957  31.3899442  19.0840654   9.9686290  31.8629987
  25.1947406  12.7047091  46.3770725  24.9586043  11.8735156  46.2582786
  25.8390635  12.6532698  46.9625569  25.2542076  12.5744779  46.4456619
  14.8445824  13.4942612  37.0913462  15.4819771  13.2554360  37.6365255
  15.2700895  13.6979771  36.3566622  15.0021990  13.4893622  37.0630619
   9.5358466  15.7330949  40.9747765   9.5762611  16.0045800  40.1467545
  10.0952990  16.2572857  41.3905553   9.6241812  15.8506704  40.9139654
  15.4848639   8.7144902  31.4288351  15.8693791   8.4952609  32.1804896
  15.2360259   9.5407847  31.5589427  15.5050711   8.8043048  31.5589427
  26.2183826  12.4891540  42.4399020  25.9129643  13.2219597  42.8012335
  25.4990042  12.0829469  42.1591806  26.0671168  12.5373273  42.4512157
  17.2267296  13.9715035  38.7707248  17.3006304  13.8090207  39.6249098
  18.0436802  14.1605224  38.5267730  17.3583654  13.9751777  38.8605273
  31.9185618   9.1284540  41.7667364  31.8510119   9.1480500  40.8969950
  31.9041281   9.9714868  41.9923034  31.9064375   9.2558275  41.6719841
  10.9873052  14.3172898  35.8001691  10.1611170  14.5634635  35.6735970
  11.0485044  14.2384979  36.6663749  10.8747219  14.3417847  35.9090636
  22.3281965   0.5319698  45.0908453  23.0735557   0.3429508  44.6771879
  21.9119269   1.0577936  44.5322310  22.3766939   0.5821843  44.9473027
  15.7671881  16.9349778  33.5020721  16.0570180  16.5438759  32.7779948
  16.4975362  17.1166483  33.9425997  15.9178766  16.9043592  33.4603528
  29.7044236   7.9028927  40.0413958  30.2552157   7.2696996  40.2811050
  29.6888351   8.4344319  40.7329463  29.7829432   7.8877875  40.1792817
  16.3566627  11.7367524  44.5873852  15.8578320  12.4483292  44.6658740
  17.1666851  12.0568190  44.5492014  16.4022733  11.8894372  44.5930420
  13.7077797  18.9117160  36.5680871  13.4878092  18.6214515  37.3607538
  13.4872319  18.2532115  36.0398783  13.6425391  18.7716869  36.6069780
  12.6194744  10.9990477  38.8336573  12.3307993  10.3727948  39.3682300
  13.4878092  10.9410764  38.9001253  12.7054996  10.8978021  38.9227527
  23.4072642   6.1425260  39.1518554  23.0637408   5.4215595  39.5025804
  23.5065684   5.9339111  38.3096913  23.3714685   6.0049464  39.0790235
  15.8745753  20.2846550  35.3511563  16.5269811  19.7522993  35.5802589
  15.1771361  19.9315203  35.7379437  15.8676471  20.1536073  35.4423731
  12.8227017  12.6385728  34.7578938  13.5772985  13.0198767  34.9714400
  12.2297630  13.0896872  35.2125634  12.8463731  12.7614555  34.8561816
  23.8685671  12.6050964  34.6942543  24.4343704  13.2644174  34.6101086
  23.2213574  12.9500662  35.1658945  23.8564427  12.7532906  34.7515299
  15.2833685   4.5948568  49.8836150  14.4733460   4.9006348  49.7725992
  15.7608371   5.3154151  49.9988734  15.2337163   4.7463169  49.8843221
  14.1425244  13.8094289  40.1319053  13.6205998  13.9494581  40.8170918
  14.5299264  13.0504954  40.3221170  14.1228945  13.7179813  40.2620130
  20.3392249  15.5489749  34.1179622  20.0978925  14.8157609  33.7106687
  20.5193582  16.0976605  33.4645955  20.3299873  15.5212140  33.9609845
  15.5691570  10.8398308  35.5300544  15.3734352  11.4473043  34.9360847
  15.7925915  10.1466252  35.0492218  15.5726211  10.8275834  35.3716625
  13.9670100   7.7253046  35.6481412  14.6892752   7.8894204  35.1885218
  13.4878092   8.4462711  35.5420752  14.0033830   7.8551276  35.5647026
  21.9263607   4.0616845  41.0278097  21.0874708   4.0878124  40.7916361
  21.9967975   4.7087580  41.6083444  21.8132001   4.1612971  41.0787214
  11.6177716  10.1311119  44.7535552  12.1298813  10.4095372  44.1044312
  11.3314059  10.8700413  45.1198365  11.6512580  10.2813472  44.7125430
  20.3732886   0.9602222  35.7605713  21.0759238   0.7609970  35.2825672
  20.1077074   0.1878164  36.0674557  20.4379518   0.8165188  35.7351155
  25.8021131   9.2684832  38.3139339  25.7155106   9.4240258  39.1674118
  25.3471611   9.9122907  37.9398744  25.7224388   9.3860587  38.3846446
  15.1361442   2.2237507  44.8136594  14.9444639   2.2392642  45.6636017
  15.9860038   2.4201182  44.7903249  15.2337164   2.2551858  44.9359889
  19.6746947   6.5895579  36.9364899  19.4281661   6.5091330  37.7701688
  20.0032070   5.8049047  36.7427426  19.6868191   6.4621844  37.0312422
  23.5694996  13.2978938  40.7251680  23.4309355  13.9959984  41.2300422
  22.7894994  13.1427595  40.3687862  23.4338223  13.3779105  40.7477954
  21.9073081   9.5975314  46.9774062  21.9021120   8.7255130  46.9816488
  22.6134075   9.7963483  46.5043517  22.0118085   9.4979188  46.9081097
  15.6343974   9.3252297  46.3487882  15.7787350   9.9053506  45.7130992
  15.9819623   9.7028594  47.0537736  15.7071436   9.4673002  46.3586877
  17.8063892   8.5242466  44.1313013  17.0587206   8.7173480  43.7261291
  17.9605417   7.6987685  43.8937135  17.7186319   8.4307577  44.0358419
  14.7071729  17.5155069  43.2148909  14.8561293  16.9557985  42.5622313
  15.4871732  17.5947071  43.5981427  14.8445823  17.4440635  43.1745858
  17.2325030  17.6869712  44.4933399  17.1568701  17.0178523  45.0484188
  17.1614889  18.3887500  45.0074066  17.2105637  17.6914620  44.6510248
  18.0465669   2.4193017  45.0208417  18.5038283   3.1516991  45.1481209
  18.1221998   1.9959482  45.7795673  18.1256639   2.4650255  45.1509494
  17.8895277  16.2070711  35.3257005  18.6545168  15.9380355  35.0039670
  17.7873367  15.7220721  36.0427068  17.9876772  16.0960276  35.3836833
  15.9248047   4.4095120  41.8650241  15.1344122   4.2286581  42.1867577
  16.3208670   3.6322073  41.8480536  15.8664923   4.2682581  41.9102789
  20.4113938  13.2382895  27.3056955  21.1786923  13.2983020  26.8962806
  19.9645247  12.6663336  26.8213273  20.4587365  13.1619471  27.1734665
  21.3091733  12.0437551  39.5909687  20.6336735  11.8122783  40.0923074
  21.3184109  11.4358734  38.9651792  21.2110238  11.9196476  39.5725839
  18.4385877   6.8855380  46.3473740  18.3745018   7.7465336  46.2193877
  18.5783065   6.5687373  45.5469291  18.4501347   6.9655546  46.2101953
  23.3108468  14.9002683  31.8219865  23.3928305  15.7069669  31.4981316
  23.7958210  14.9198642  32.5460638  23.3945626  15.0223345  31.8806764
  17.1204971   9.5787519  40.4889943  16.6967220   9.7792018  39.7528961
  16.9449826   8.7316367  40.6014243  17.0315852   9.4836300  40.3963633
  16.6216664  21.0938032  42.9511400  17.1112595  20.3948821  42.7687065
  16.0500897  20.7961902  43.5387458  16.6101194  20.9464256  43.0112441
  12.4087416  10.0739570  35.9217915  12.5652035  10.0086373  36.7773907
  12.7488009  10.8488123  35.7096595  12.4820651  10.1788769  36.0172510
  18.9466561   9.4497454  34.7911279  19.4882106   8.9467835  35.2549899
  19.2613120   9.3962649  33.9800764  19.0730958   9.3676875  34.7395091
  22.8183668  13.6600101  51.9038191  23.6318533  13.3885250  52.0643323
  22.6578634  13.3607641  51.0998387  22.9153616  13.5755027  51.8083597
  17.1153010  14.8414806  32.0751307  17.1845831  13.9829344  32.2144307
  17.8941465  15.0586686  31.7470331  17.2405860  14.7467669  32.0468464
  20.0955830   4.3433758  44.8433579  20.3097799   3.7044673  44.2896933
  19.4789729   4.7879582  44.4141441  20.0361159   4.3143902  44.6984010
  21.5060498  17.2652507  36.2887800  21.1140290  16.9619222  35.5710666
  21.6613570  18.1021597  36.0992754  21.4714088  17.3436344  36.1544297
   8.9821677   7.2574521  36.2378683   9.3620642   7.6759066  35.5738950
   8.4077042   7.8387977  36.5447526   8.9533002   7.4052380  36.1855424
  22.2594918   5.9522824  45.7816886  21.4471600   5.6448714  45.8630059
  22.7184853   5.4721824  46.3459598  22.2075303   5.8359316  45.8771480
  21.6700173  13.8302496  36.2293831  21.3114827  14.0017139  37.0057863
  21.1838883  14.2915701  35.6721829  21.5458870  13.9241467  36.2619100
  16.4588538   9.5101661  28.7694065  16.7481063  10.2866544  29.0437639
  16.5460337   8.9990392  29.4708564  16.5142794   9.5493579  28.9136563
  19.3548425   7.3582895  50.5645589  19.8248057   7.9825011  50.9513463
  19.4010306   6.6899871  51.1238803  19.4316301   7.3517575  50.7045660
  22.8304912  14.7206392  47.1761031  23.4684632  14.2266587  46.8423487
  22.1879004  14.6483792  46.5913258  22.8299138  14.6365400  47.0403386
  24.5561912   6.5695538  41.7426947  24.1289520   6.4821886  40.9875047
  23.9187965   6.6773313  42.3281791  24.3991519   6.5728197  41.7172389
  18.0482989   1.6771063  47.6823916  18.8756418   1.4056212  47.7382531
  18.0690835   2.4731904  48.0387734  18.1735839   1.7550817  47.7439099
  22.8859169  15.4126200  43.8166388  23.6751547  15.0615265  43.9368470
  23.0602766  16.2262588  43.5543022  23.0279450  15.4812057  43.7954256
  12.6252479   8.8234926  40.8694177  11.7840486   8.7238800  41.0773071
  12.8342487   9.5930406  41.2208498  12.5317172   8.9226969  40.9521492
  10.1028046   6.4454463  38.6978928   9.7084744   6.5197474  37.9229037
   9.5468163   6.8312409  39.2487289   9.9630858   6.5136237  38.6646587
  21.7392993  -0.5764243  38.3782807  21.9442586  -0.6441936  39.2239804
  21.4119417   0.2294578  38.3103984  21.7208241  -0.4678303  38.4942462
  16.4369144   6.7516325  40.1191775  16.1332281   6.1972313  40.7202182
  15.7348565   6.9308535  39.6319809  16.2885354   6.6961107  40.1361480
  15.4935241   4.0616845  34.6836476  15.7694975   3.3435757  34.2714044
  16.0933910   4.6601765  34.4757582  15.6228506   4.0437215  34.5917238
  14.4987495  13.9666045  44.8263872  14.3907850  13.9768108  45.6925930
  14.7083276  14.7920826  44.6368826  14.5137606  14.0907120  44.9267964
  24.9926680  -0.0232479  37.8585572  24.3800994   0.4637923  38.2439304
  25.0890855  -0.6988988  38.4023223  24.9164578  -0.0514170  37.9964430
  18.9945761   1.7330362  32.9583071  19.4489508   1.9040922  33.6830916
  19.4685807   1.1198473  32.5580847  19.1314082   1.6681247  33.0056833
  12.5161287  11.2178688  42.2885810  11.9249220  11.8588186  42.2588825
  13.2782310  11.6416305  42.2617109  12.5409547  11.3754526  42.2800957
  14.5605259   3.0447381  47.5225855  14.1690824   2.3980728  47.9581632
  14.7291122   3.6358816  48.1420110  14.5276170   3.0361648  47.6788561
  22.2750803  16.6687999  39.7217834  22.0770492  17.1578814  39.0274046
  21.6538514  16.8729241  40.3001968  22.1538368  16.7704538  39.7041058
  16.3358781   8.4372896  34.0628079  17.0800826   8.8247173  34.3011029
  16.4819478   7.5930322  34.2268566  16.4669367   8.3703369  34.1222048
  19.3236657   4.0098370  39.9621998  18.8496612   3.4840132  40.4727309
  19.6954793   3.4627842  39.3936860  19.3086546   3.8514366  39.9537145
  25.5873388   9.0700745  41.3728779  25.3471611   8.2307160  41.3771205
  26.0665395   9.1500912  42.0969552  25.6225572   8.9582145  41.4803581
  21.2520157   4.9034924  33.0247752  20.7243176   4.9863668  32.3353461
  21.7115865   5.6452796  33.0212396  21.2422007   5.0255587  32.9222447
  27.5878575   5.8502202  39.3258038  27.3488345   5.8098037  38.4878822
  27.7512476   6.6973355  39.4523759  27.5768878   5.9694288  39.2211520
  24.1924605  10.2352152  45.2563083  24.9158804   9.7824678  45.0774103
  23.9274567  10.5156817  44.4735411  24.2605878  10.2103120  45.1141798
  13.0611473   4.8312325  41.9915962  12.4364544   4.8430717  41.3841915
  12.7257068   5.3072500  42.6407202  12.9196965   4.9030842  41.9972530
   9.7737149  12.8912785  43.4319726   9.2437073  12.2005224  43.4814701
  10.0462242  12.8822971  42.6032435   9.7361871  12.7879917  43.3167142
  20.8057239  13.4738488  32.1557409  21.5291438  13.9396601  32.0121982
  20.3657830  13.5412097  31.4055006  20.8472932  13.5522324  32.0242190
  19.9743394  10.3336030  43.4058098  19.3600388   9.7894080  43.7006733
  20.4910679   9.8200267  42.9263914  19.9599057  10.1772439  43.3782326
  19.2139692  11.4040300  41.1402396  18.7867300  10.7790019  40.7067832
  19.2064636  11.1215222  41.9661404  19.1498833  11.2693081  41.1982224
  12.3302219   6.4405473  44.2090830  12.4895705   5.6848797  44.6142552
  12.1495112   6.9896413  44.8631568  12.3267578   6.4099287  44.3653536
  20.2722522  -1.3933291  44.7641620  19.7763083  -1.1969617  44.0733187
  21.0291584  -0.9940623  44.5930422  20.3109346  -1.3055557  44.6361757
  17.5425401   2.2809055  41.3544930  17.5667889   1.7469167  40.6657710
  17.7936875   1.7726363  42.0170521  17.5835320   2.1269959  41.3509575
   5.0532991   9.5640550  40.7888075   4.9476440   9.5187394  39.9240159
   4.3033211   9.9094330  41.0702359   4.9268594   9.6081458  40.7025404
  16.0056336  10.5740613  48.8370969  15.1551967  10.7112327  48.9728614
  16.1684464   9.8404391  49.2818671  15.9040200  10.4854714  48.9226569
  15.2441087   7.5240383  43.0324574  14.4133017   7.6914201  42.8259822
  15.1892604   7.1476333  43.8173459  15.1130502   7.4930114  43.1173102
  13.6177131   5.7995974  33.5614691  13.7580092   6.2968438  34.2643333
  14.1159664   5.0982269  33.7028905  13.7118212   5.7697953  33.6866270
  13.6477353   6.6663085  30.8907268  14.2822433   7.2623510  30.8256730
  13.7302964   6.3666543  31.7053138  13.7533904   6.7103993  31.0010355
  26.6259919   9.1978563  43.7593632  27.2177759   9.8375813  43.7911831
  27.0618913   8.5001599  44.0485699  26.7778350   9.1896913  43.8074465
  15.2256336   2.5977061  30.8652710  15.5472177   2.1180143  30.2111973
  15.4883280   3.4076707  30.6743522  15.3122361   2.6466959  30.7408202
  18.4553309  13.6195935  44.3851526  17.9478400  14.1731782  44.8292157
  18.1579955  13.6804225  43.5670301  18.3358194  13.7102246  44.3299983
  20.6215491   1.9849255  43.2276189  21.0470563   1.5321781  42.6159716
  20.0072484   1.4309325  43.5040977  20.5944136   1.8363231  43.1781215
  10.1530341   8.8630926  34.1596814  10.6622570   9.4595434  34.5408120
  10.6264613   8.5956900  33.4773234  10.2973717   8.9116741  34.1151337
  21.0661089  17.5359193  32.3155470  20.3490399  17.3620055  31.8502707
  21.7167827  17.3011765  31.7830956  21.0562940  17.4754985  32.1684688
  23.6509060   6.4123781  36.0596775  22.9800250   6.9553483  35.9309841
  24.3448811   6.8818637  35.8178470  23.6537928   6.5622052  36.0052303
  17.6995794  18.5520493  41.2908533  17.4761449  17.7939323  41.6592560
  17.2105637  18.5818514  40.5688973  17.5939243  18.4442718  41.2385274
  23.8137188   2.8679665  38.9687148  24.1664798   2.4409388  39.6432947
  22.9551989   2.7830508  39.0988225  23.7386632   2.7924406  39.0882159
  12.5120873   5.4987185  37.0269995  11.7932862   5.9151317  37.2942858
  12.8833235   6.0641423  36.4761633  12.4612805   5.6436466  36.9852802
  21.8120454   6.1315033  42.9171990  21.7918381   5.9498329  43.7706769
  21.8599654   7.0027052  42.8931574  21.8155095   6.2331572  43.0395285
  19.7566783  12.7202225  48.8420467  19.7162638  12.0751902  48.2565623
  20.5690102  12.6638843  49.1545879  19.8709937  12.6161192  48.8017416
  16.3474251  18.7720951  38.7445618  15.9334650  18.1095082  38.3549460
  17.0321625  18.9198810  38.2241312  16.3872623  18.6961610  38.6102115
  19.7139545  17.9311037  39.4969234  19.3155828  18.0413307  38.7290055
  19.0990765  18.1393103  40.0795794  19.5638434  17.9784605  39.4700534
  18.2867447   4.5385184  32.3643374  17.6932286   4.8602181  31.8127941
  18.3242725   3.6926280  32.1564480  18.2041836   4.4609513  32.2526145
  25.2461248  -2.0101923  39.8971461  24.7392113  -2.7172784  39.8292638
  26.0428682  -2.3408734  40.0272537  25.2888487  -2.1628772  39.9070456
  21.1625264   4.4964689  35.7945124  20.9338957   4.5197390  34.9523483
  21.4223340   3.6722156  35.9140135  21.1671452   4.3780769  35.6870322
  15.4444492   6.3499162  45.3970225  14.9323395   5.7420345  45.7555256
  15.2723988   7.0655755  45.8644200  15.3434129   6.3662461  45.5186448
  14.2170026   3.0341235  37.0899320  14.6927393   3.3958315  36.4549501
  13.7158626   3.6897703  37.3699463  14.2135385   3.1835424  37.0376061
  19.3213563   4.2723407  47.8372480  19.8784993   4.0437216  47.2050946
  18.9974628   5.0329072  47.5607693  19.3559973   4.3507243  47.7028977
  17.0396680   7.3591060  48.8024487  17.7908007   7.6742737  49.1164041
  17.2319256   7.1570231  47.9758409  17.1788094   7.3758442  48.7267883
  16.2596679   5.1782435  30.4572704  16.6395644   5.1962064  29.6723819
  15.5189275   5.6236424  30.3363551  16.2065517   5.2464210  30.3236272
  23.8881970   3.4864626  36.0448283  23.8876196   3.3313283  36.9032559
  23.6838150   4.3327613  35.9889668  23.8581748   3.5885247  36.1636222
  21.6122822   8.1662128  39.6984490  22.1076487   7.4485123  39.6588510
  20.8022598   7.8632926  39.5838977  21.5666715   8.0159774  39.6758215
  17.0581433  12.0159941  31.8481494  16.2492756  11.6926615  31.8014804
  17.5656342  11.3093163  31.7809743  17.0131100  11.8641258  31.8311788
   7.6871711   9.4432134  37.5728858   6.8217230   9.4317825  37.4611630
   7.7870527   9.2562357  38.4199998   7.5745878   9.4138196  37.6817803
  23.6774641  10.9165816  42.3861618  24.1029712  10.3940237  41.8332043
  23.3131561  11.5146653  41.8650241  23.6861243  10.9276043  42.2270628
  13.3128721  19.2130033  41.1458964  13.6275280  20.0266421  41.1536746
  13.7222134  18.8280252  41.8141123  13.4196819  19.2758735  41.2463056
  20.2653240  14.6300080  38.7162776  20.7364418  15.3440342  38.8852761
  20.6013419  14.0298830  39.2522645  20.3848355  14.6471544  38.8195152
  22.3530225  16.2401393  50.8954848  22.4627190  15.4509954  51.2511595
  22.6821121  16.1507329  50.0929186  22.4182631  16.1107246  50.8297239
  20.9027187  14.4218014  45.4790468  20.3548133  13.7975898  45.2110534
  21.3640215  14.6112286  44.7634548  20.8894396  14.3577064  45.3340900
  23.7121051   2.4903368  42.8641661  23.1284040   2.9912575  42.4519228
  24.0325345   1.9832925  42.2305984  23.6734226   2.4895203  42.7100168
  16.2515850   1.4043963  33.1400336  17.0731544   1.5742276  32.8982030
  15.7885501   1.5591224  32.4166633  16.3047012   1.4525696  32.9971980
  10.6541741  13.1603141  40.7937572  11.2586598  13.1198976  40.1651393
  10.4469053  14.0074294  40.8241628  10.7130638  13.2791144  40.7053689
  20.4685513  15.4269087  42.0099810  21.2883887  15.2832053  42.2716105
  20.1879591  16.0515286  42.5516248  20.5482256  15.4979439  42.1287749
   5.8893023  12.1437759  40.6636495   5.7917301  11.3334031  40.9726552
   6.6721893  12.1229552  40.2782764   5.9909160  12.0204849  40.6523358
  19.2989788  27.7410986  37.3847954  19.0639973  26.9078638  37.2780223
  19.4375429  28.0215652  36.5709155  19.2845451  27.6594489  37.2490309
  21.5979876  19.9096717  40.2832262  20.9784907  19.3189364  40.1142277
  21.4963739  20.5008152  39.6496585  21.4917551  19.9100799  40.1637251
  21.3249009  23.4548998  42.5275831  21.2007706  24.0411444  43.1625650
  21.9767293  22.9609194  42.8288106  21.4022658  23.4687803  42.6661760
  34.0751043  13.0074178  36.9435610  33.7604484  13.6977657  37.3756033
  33.5577984  12.9518960  36.2421111  33.9515513  13.1009066  36.9032559
  28.1555319  31.1454811  46.2087810  27.5926154  30.7327421  46.7327471
  28.9176342  31.0707717  46.6280953  28.1849767  31.0732212  46.3480810
  29.7640299  23.1507548  30.3349409  30.0036302  23.3585531  29.5224753
  30.0856140  22.3465056  30.4438354  29.8477457  23.0621649  30.2309962
  24.7630217  23.3728420  47.9404855  24.9350721  23.2634314  48.7890137
  25.2999574  24.0182825  47.7036048  24.8675221  23.4520421  48.0309952
  23.4287654  17.4871262  30.8787060  23.2463227  17.7043143  30.0528053
  24.2913267  17.6010275  30.9345675  23.5292243  17.5361160  30.7641547
  23.6654789  29.7460060  42.6223354  24.2053014  29.6031191  43.2926726
  22.9824735  30.1456811  42.9907380  23.6446943  29.7839731  42.7757775
  19.0691934  25.9660351  42.7757775  18.8030349  25.1499467  42.9348766
  19.0830498  26.0113506  41.9053291  19.0316656  25.8517255  42.6711257
  36.0473328  16.2938166  40.8100209  36.6899236  16.3636270  41.3962124
  36.2996348  15.6267388  40.3079751  36.1795460  16.2064514  40.8227488
  23.8190540  19.5038729  45.4224783  23.1262337  19.0335709  45.6685515
  24.4350867  19.2777033  45.9966490  23.8075070  19.4005861  45.5433936
  19.4785347  26.7519130  40.0569520  19.2960921  26.7266016  39.2041812
  20.2135016  27.2218068  40.0958428  19.5599411  26.8180492  39.9367438
  22.5431099  23.4704133  46.5651628  23.2671071  23.4557164  47.0516523
  22.6447236  24.1799488  46.0673596  22.6649308  23.5728836  46.5630415
  29.9176049  26.9503218  51.4300575  29.1249029  27.2646729  51.6153195
  30.0324976  27.1654686  50.5921360  29.8171459  27.0287054  51.3338910
  19.4456258  23.6312631  40.2068586  20.0229760  23.4949081  40.8460831
  18.7470319  23.1748415  40.4614170  19.4277279  23.5434897  40.3390876
  14.9215091  22.4824524  36.9216405  15.0075343  22.1056392  37.7029935
  15.5490888  22.1084969  36.4436363  15.0271642  22.3710006  36.9661882
  20.5091050  31.2516257  40.9747765  20.5495195  31.5231108  40.1467545
  21.0685574  31.7758165  41.3905553  20.5974396  31.3692012  40.9139654
  26.6249763  17.5136625  51.1450935  26.3103204  18.2836188  50.8820498
  26.3039695  16.9506881  50.5603162  26.5308682  17.5446894  51.0192285
  33.3014548  16.0505006  45.0908453  34.0468140  15.8614816  44.6771879
  32.8851853  16.5763244  44.5322310  33.3499523  16.1007151  44.9473027
  23.5927328  26.5175785  38.8336573  23.3040576  25.8913256  39.3682300
  24.4610676  26.4596072  38.9001253  23.6787580  26.4163329  38.9227527
  26.2566268  20.1133876  49.8836150  25.4466044  20.4191656  49.7725992
  26.7340955  20.8339459  49.9988734  26.2069747  20.2648477  49.8843221
  22.5910300  25.6496427  44.7535552  23.1031397  25.9280680  44.1044312
  22.3046643  26.3885721  45.1198365  22.6245163  25.7998780  44.7125430
  19.6777206  20.1566618  35.0499289  19.7793343  20.9592780  35.3780264
  20.4733093  19.9553954  34.7522369  19.8105112  20.2452517  35.0534644
  20.4940938  20.2713797  42.7920410  20.3526430  19.4197737  42.9164918
  20.7781502  20.3142457  41.9682616  20.5148784  20.1513547  42.6888034
  25.6804313  33.0340377  43.2148909  25.8293877  32.4743293  42.5622313
  26.4604315  33.1132379  43.5981427  25.8178407  32.9625943  43.1745858
  28.2057614  33.2055020  44.4933399  28.1301285  32.5363831  45.0484188
  28.1347473  33.9072808  45.0074066  28.1838221  33.2099927  44.6510248
  21.2631244  18.1844144  46.1097861  20.7273433  17.5724502  46.4258628
  21.3249008  18.7592280  46.7631527  21.1926876  18.1791072  46.2533288
  33.4925578  11.1168200  38.8902260  33.6109146  11.5744663  38.1569563
  33.3187754  10.3113461  38.6038478  33.4844749  11.0661972  38.7403194
  23.3820000  25.5924878  35.9217915  23.5384619  25.5271681  36.7773907
  23.7220593  26.3673431  35.7096595  23.4553234  25.6974076  36.0172510
  33.7916252  29.1785409  51.9038191  34.6051117  28.9070558  52.0643323
  33.6311218  28.8792949  51.0998387  33.8886200  29.0940335  51.8083597
  19.9554261  22.7759829  36.2378683  20.3353226  23.1944374  35.5738950
  19.3809626  23.3573284  36.5447526  19.9265586  22.9237688  36.1855424
  30.3281009  22.8768203  50.5645589  30.7980640  23.5010319  50.9513463
  30.3742889  22.2085179  51.1238803  30.4048885  22.8702883  50.7045660
  29.2201658  12.4085176  45.4097505  29.8494776  12.9445476  45.1318575
  29.3887521  12.3162535  46.2611070  29.3379452  12.4746538  45.4946033
  29.0215573  17.1956371  47.6823916  29.8489002  16.9241520  47.7382531
  29.0423419  17.9917212  48.0387734  29.1468423  17.2736125  47.7439099
  23.5985063  24.3420234  40.8694177  22.7573069  24.2424108  41.0773071
  23.8075070  25.1115714  41.2208498  23.5049755  24.4412277  40.9521492
  21.0760629  21.9639770  38.6978928  20.6817327  22.0382782  37.9229037
  20.5200746  22.3497717  39.2487289  20.9363442  22.0321545  38.6646587
  25.4720078  29.4851353  44.8263872  25.3640433  29.4953416  45.6925930
  25.6815860  30.3106134  44.6368826  25.4870189  29.6092428  44.9267964
  35.9659264  15.4952829  37.8585572  35.3533578  15.9823231  38.2439304
  36.0623439  14.8196320  38.4023223  35.8897162  15.4671137  37.9964430
  23.4893870  26.7363996  42.2885810  22.8981804  27.3773494  42.2588825
  24.2514894  27.1601613  42.2617109  23.5142131  26.8939834  42.2800957
  23.8854493  17.8965994  42.9553828  24.3455975  17.9704923  43.6928951
  23.9310600  18.6947248  42.6053649  23.9605049  18.0260141  43.0126584
  25.5337843  18.5632688  47.5225855  25.1423408  17.9166036  47.9581632
  25.7023706  19.1544124  48.1420110  25.5008753  18.5546956  47.6788561
  20.6742271  21.5255184  45.3305544  21.5367884  21.4250893  45.2442874
  20.3434054  20.9449894  44.7691116  20.7527467  21.4246811  45.2350950
  24.2185806  18.6922752  28.0488647  23.8698610  19.3442477  28.5120196
  23.7382251  18.6779865  27.3212518  24.0956050  18.7865805  28.0099738
  20.7469733  28.4098093  43.4319726  20.2169657  27.7190532  43.4814701
  21.0194826  28.4008279  42.6032435  20.7094455  28.3065225  43.3167142
  23.3034802  21.9590781  44.2090830  23.4628289  21.2034105  44.6142552
  23.1227696  22.5081721  44.8631568  23.3000161  21.9284595  44.3653536
  31.2455105  14.1252017  44.7641620  30.7495667  14.3215691  44.0733187
  32.0024167  14.5244685  44.5930422  31.2841930  14.2129750  44.6361757
  16.0265575  25.0825858  40.7888075  15.9209024  25.0372702  39.9240159
  15.2765795  25.4279638  41.0702359  15.9001178  25.1266766  40.7025404
  26.9788920  26.0925921  48.8370969  26.1284551  26.2297635  48.9728614
  27.1417048  25.3589699  49.2818671  26.8772784  26.0040022  48.9226569
  24.0257454  16.5334584  48.6680984  24.6510157  15.9896716  48.9410417
  23.5707934  16.0529501  48.0988775  24.0505714  16.3824065  48.6242578
  21.1262925  24.3816234  34.1596814  21.6355154  24.9780741  34.5408120
  21.5997197  24.1142208  33.4773234  21.2706300  24.4302049  34.1151337
  36.2193831  13.5083385  39.8971461  35.7124696  12.8012524  39.8292638
  37.0161265  13.1776573  40.0272537  36.2621071  13.3556536  39.9070456
  21.2642790  20.3122045  48.0472586  21.0945381  20.9723420  47.5020793
  20.8208740  20.5228606  48.7685076  21.1742124  20.4408027  48.0734216
  30.2946146  19.7908715  47.8372480  30.8517576  19.5622524  47.2050946
  29.9707211  20.5514380  47.5607693  30.3292556  19.8692551  47.7028977
  18.1644855  23.2168911  43.3061076  17.6171574  22.5469556  43.4241945
  18.9537233  22.8498759  43.3704544  18.1997039  23.0633897  43.3329777
  28.0129263  22.8776368  48.8024487  28.7640590  23.1928045  49.1164041
  28.2051840  22.6755539  47.9758409  28.1520678  22.8943750  48.7267883
  16.9231824  22.4289719  40.4607099  16.7453586  21.9766328  41.1862015
  16.6350847  23.2315880  40.6445577  16.8544778  22.4812276  40.5950602
  18.6604294  24.9617442  37.5728858  17.7949814  24.9503133  37.4611630
  18.7603110  24.7747665  38.4199998  18.5478461  24.9323504  37.6817803
  24.2861304  34.7315341  41.1458964  24.6007863  35.5451729  41.1536746
  24.6954718  34.3465560  41.8141123  24.3929402  34.7944043  41.2463056
  28.1555319  14.9212858  45.6720871  28.2883224  14.1243852  46.0001846
  28.5400472  15.4479261  46.2519146  28.2311648  14.8812775  45.8064374
  25.8143766  14.9172033  43.9198764  26.3588179  14.5763160  44.5103106
  25.8680701  15.7757495  44.0620049  25.9032885  14.9927293  44.0280638
  21.6274324  28.6788449  40.7937572  22.2319182  28.6384284  40.1651393
  21.4201637  29.5259601  40.8241628  21.6863222  28.7976452  40.7053689
  16.8625607  27.6623067  40.6636495  16.7649885  26.8519338  40.9726552
  17.6454476  27.6414860  40.2782764  16.9641743  27.5390157  40.6523358
  55.3957732  59.4766731  49.3356073  56.1024499  58.9818762  49.4643007
  55.5845667  59.9175812  48.6058731  55.5285637  59.4685081  49.2465118
  51.4634406  65.1182561  36.8629507  51.8473786  65.6869460  36.3234282
  51.3993547  64.3932072  36.3835323  51.5107833  65.0958025  36.7123369
  47.8890651  67.6738904  39.1610477  48.5328106  68.1152068  39.5506635
  48.2146906  66.8692331  39.0740735  48.0322479  67.6204099  39.2055954
  50.8358608  60.5136237  41.4570235  51.1181851  59.7187643  41.2356990
  51.5644769  60.9916824  41.4775296  50.9848172  60.4670834  41.4273250
  60.8176697  59.6195599  38.4306065  59.9874400  59.8306243  38.5939482
  60.7685949  58.7932654  38.1548349  60.6883432  59.5285205  38.4143431
  42.8072280  63.6567273  38.6604160  42.3239858  64.3817762  38.6363744
  43.6195598  63.9543403  38.7714318  42.8563028  63.8069626  38.6731440
  48.8786434  62.4499453  41.2653975  48.3613376  62.0906868  40.6615283
  49.5760825  61.9261628  41.2760041  48.9052015  62.3197141  41.1784233
  52.5350026  62.8994267  47.2270148  52.6233372  62.7120408  48.0748358
  52.9639739  62.2531697  46.8274995  52.6112129  62.7757275  47.2941899
  50.1020486  62.1825427  46.2087810  49.5391321  61.7698037  46.7327471
  50.8641509  62.1078333  46.6280953  50.1314935  62.1102828  46.3480810
  45.6616477  64.1723449  38.8124440  46.3637057  63.6575438  38.8697197
  45.5813960  64.4997600  39.6171315  45.7540238  64.1437675  38.9397232
  45.6119956  60.7830676  42.6223354  46.1518181  60.6401807  43.2926726
  44.9289902  61.1827426  42.9907380  45.5912110  60.8210347  42.7757775
  58.0741012  60.2894954  38.5670781  57.6376244  60.2931696  39.3229753
  57.7403927  60.9700453  38.1350359  57.9603632  60.3907409  38.6151614
  52.6470085  62.3303286  49.8913931  53.4310502  62.4434134  50.2569674
  52.4466680  61.5044423  50.0872617  52.7336111  62.2250006  49.9748317
  52.8040479  64.2413388  43.5380387  52.0055725  64.0012889  43.7954256
  53.2526490  64.2927781  44.2847435  52.7515090  64.2135780  43.6865311
  59.3240645  56.8642922  35.0372011  59.6548863  57.3970562  34.4312106
  59.8973734  56.9181810  35.6933962  59.4574325  56.9512491  35.0449793
  51.8641216  57.9873833  51.4300575  51.0714196  58.3017345  51.6153195
  51.9790143  58.2025302  50.5921360  51.7636626  58.0657670  51.3338910
  52.7925008  57.8894037  46.3685872  53.3663870  57.2521281  46.5234436
  52.7139812  57.8898120  45.4995530  52.8658243  57.7959149  46.2632283
  58.1145156  59.2603015  46.3770725  57.8783794  58.4291080  46.2582786
  58.7588385  59.2088622  46.9625569  58.1739827  59.1300703  46.4456619
  59.1381577  59.0447463  42.4399020  58.8327394  59.7775520  42.8012335
  58.4187793  58.6385393  42.1591806  58.9868919  59.0929196  42.4512157
  64.8383369  55.6840464  41.7667364  64.7707869  55.7036423  40.8969950
  64.8239031  56.5270791  41.9923034  64.8262126  55.8114199  41.6719841
  48.6869632  63.4905702  33.5020721  48.9767930  63.0994683  32.7779948
  49.4173113  63.6722407  33.9425997  48.8376516  63.4599515  33.4603528
  46.6275548  65.4673084  36.5680871  46.4075843  65.1770439  37.3607538
  46.4070070  64.8088039  36.0398783  46.5623142  65.3272793  36.6069780
  48.7943503  66.8402474  35.3511563  49.4467561  66.3078916  35.5802589
  48.0969112  66.4871126  35.7379437  48.7874221  66.7091997  35.4423731
  56.7883422  59.1606888  34.6942543  57.3541454  59.8200098  34.6101086
  56.1411325  59.5056586  35.1658945  56.7762178  59.3088829  34.7515299
  53.2590000  62.1045672  34.1179622  53.0176676  61.3713533  33.7106687
  53.4391333  62.6532529  33.4645955  53.2497624  62.0768063  33.9609845
  56.4892747  59.8534862  40.7251680  56.3507106  60.5515908  41.2300422
  55.7092745  59.6983518  40.3687862  56.3535974  59.9335029  40.7477954
  54.8270832  56.1531237  46.9774062  54.8218870  55.2811054  46.9816488
  55.5331826  56.3519407  46.5043517  54.9315836  56.0535112  46.9081097
  47.6269480  64.0710993  43.2148909  47.7759044  63.5113909  42.5622313
  48.4069482  64.1502995  43.5981427  47.7643574  63.9996559  43.1745858
  57.9846120  59.2113116  31.4868179  57.6052928  58.4250254  31.4797468
  57.3212365  59.7599973  31.3439823  57.8304594  59.1757940  31.4648976
  50.1522781  64.2425636  44.4933399  50.0766452  63.5734447  45.0484188
  50.0812640  64.9443424  45.0074066  50.1303388  64.2470543  44.6510248
  50.8093028  62.7626635  35.3257005  51.5742919  62.4936279  35.0039670
  50.7071118  62.2776645  36.0427068  50.9074523  62.6516199  35.3836833
  56.2306218  61.4558607  31.8219865  56.3126056  62.2625593  31.4981316
  56.7155961  61.4754566  32.5460638  56.3143376  61.5779269  31.8806764
  49.5414415  67.6493956  42.9511400  50.0310345  66.9504745  42.7687065
  48.9698647  67.3517826  43.5387458  49.5298945  67.5020179  43.0112441
  55.7381419  60.2156025  51.9038191  56.5516284  59.9441174  52.0643323
  55.5776385  59.9163565  51.0998387  55.8351367  60.1310951  51.8083597
  54.4258249  63.8208431  36.2887800  54.0338040  63.5175146  35.5710666
  54.5811321  64.6577521  36.0992754  54.3911838  63.8992267  36.1544297
  54.5897923  60.3858419  36.2293831  54.2312578  60.5573062  37.0057863
  54.1036634  60.8471625  35.6721829  54.4656620  60.4797390  36.2619100
  55.8056919  61.9682124  43.8166388  56.5949297  61.6171188  43.9368470
  55.9800517  62.7818512  43.5543022  55.9477201  62.0367981  43.7954256
  47.4185246  60.5221969  44.8263872  47.3105600  60.5324031  45.6925930
  47.6281027  61.3476750  44.6368826  47.4335357  60.6463044  44.9267964
  55.1948554  63.2243923  39.7217834  54.9968242  63.7134738  39.0274046
  54.5736265  63.4285165  40.3001968  55.0736118  63.3260462  39.7041058
  57.1122356  56.7908076  45.2563083  57.8356555  56.3380602  45.0774103
  56.8472318  57.0712741  44.4735411  57.1803629  56.7659044  45.1141798
  53.7254990  60.0294412  32.1557409  54.4489189  60.4952525  32.0121982
  53.2855581  60.0968021  31.4055006  53.7670682  60.1078248  32.0242190
  37.9730742  56.1196473  40.7888075  37.8674191  56.0743318  39.9240159
  37.2230962  56.4650254  41.0702359  37.8466345  56.1637382  40.7025404
  51.3751060  60.1751859  44.3851526  50.8676151  60.7287706  44.8292157
  51.0777706  60.2360149  43.5670301  51.2555944  60.2658170  44.3299983
  53.9858840  64.0915116  32.3155470  53.2688150  63.9175979  31.8502707
  54.6365577  63.8567689  31.7830956  53.9760690  64.0310909  32.1684688
  50.6193545  65.1076417  41.2908533  50.3959199  64.3495246  41.6592560
  50.1303388  65.1374438  40.5688973  50.5136994  64.9998642  41.2385274
  52.6764534  59.2758149  48.8420467  52.6360389  58.6307826  48.2565623
  53.4887852  59.2194767  49.1545879  52.7907688  59.1717116  48.8017416
  49.2672002  65.3276875  38.7445618  48.8532400  64.6651005  38.3549460
  49.9519376  65.4754734  38.2241312  49.3070373  65.2517533  38.6102115
  52.6337296  64.4866960  39.4969234  52.2353579  64.5969231  38.7290055
  52.0188515  64.6949027  40.0795794  52.4836185  64.5340528  39.4700534
  60.3679139  59.0618927  32.8812325  60.7512744  59.8110283  33.1110422
  59.5723252  59.3084747  32.6224314  60.3072921  59.2088621  32.8769899
  46.2326471  65.7685957  41.1458964  46.5473030  66.5822345  41.1536746
  46.6419885  65.3836176  41.8141123  46.3394569  65.8314659  41.2463056
  53.1850991  61.1856004  38.7162776  53.6562169  61.8996266  38.8852761
  53.5211170  60.5854754  39.2522645  53.3046106  61.2027468  38.8195152
  55.2727976  62.7957317  50.8954848  55.3824941  62.0065878  51.2511595
  55.6018872  62.7063253  50.0929186  55.3380381  62.6663170  50.8297239
  53.8224937  60.9773938  45.4790468  53.2745883  60.3531821  45.2110534
  54.2837966  61.1668210  44.7634548  53.8092147  60.9132988  45.3340900
  53.3883264  61.9825010  42.0099810  54.2081637  61.8387976  42.2716105
  53.1077341  62.6071209  42.5516248  53.4680007  62.0535362  42.1287749
  38.8090774  58.6993683  40.6636495  38.7115052  57.8889954  40.9726552
  39.5919644  58.6785476  40.2782764  38.9106910  58.5760773  40.6523358
  69.8596914  69.6389862  34.9742686  69.8290918  70.4934499  35.1460955
  70.4578263  69.3385155  35.5328830  69.9434072  69.7206359  35.0817488
  63.0596599  68.7265513  39.7295616  62.2034494  68.8874011  39.7804733
  63.1064253  67.8557577  39.7500677  62.9395710  68.6216315  39.7401682
  57.4437739  78.2628231  35.4932848  56.6920638  77.8843769  35.2648893
  57.8923750  78.2946665  34.7451658  57.3987405  78.2113838  35.3490350
  66.3690315  74.9952039  49.3356073  67.0757083  74.5004070  49.4643007
  66.5578251  75.4361120  48.6058731  66.5018221  74.9870389  49.2465118
  65.9048420  70.7857557  42.3727268  66.4504380  71.4642644  42.4321238
  65.8465296  70.6445018  41.5128850  65.9764334  70.8649559  42.2539329
  59.0222495  78.2746623  37.7595621  59.1232858  77.4646977  38.0692748
  58.4264240  78.1803570  37.1295299  58.9495033  78.1411651  37.7121859
  67.6813489  72.2142164  33.2460996  67.5653014  72.9649850  33.6753134
  68.4769375  71.9566117  33.4957083  67.7818078  72.2877011  33.3465088
  52.2187539  74.2966910  37.3847954  51.9837723  73.4634562  37.2780223
  52.3573180  74.5771575  36.5709155  52.2043202  74.2150413  37.2490309
  54.5177627  66.4652640  40.2832262  53.8982658  65.8745288  40.1142277
  54.4161490  67.0564076  39.6496585  54.4115302  66.4656723  40.1637251
  59.5643814  76.2036187  34.5330338  59.8859655  76.7441395  33.9291646
  60.2115911  75.6332959  34.6652628  59.7069869  76.1995362  34.4637374
  61.6145522  68.2052182  34.6164725  62.3125687  68.3840310  35.1086188
  61.9297855  67.6822521  33.9935114  61.7640859  68.1545954  34.5966735
  54.2446760  70.0104922  42.5275831  54.1205456  70.5967368  43.1625650
  54.8965044  69.5165118  42.8288106  54.3220409  70.0243726  42.6661760
  61.8033458  74.5922627  34.6044516  62.2427093  73.9839728  35.0499289
  61.6538120  74.2130001  33.8329981  61.8454923  74.4461098  34.5563684
  59.2705101  73.1866639  41.8063342  59.9154103  72.6939082  41.4874290
  59.5106878  73.3291426  42.6329420  59.4015686  73.1344081  41.8812875
  61.8091192  76.0321545  41.4570235  62.0914435  75.2372951  41.2356990
  62.5377352  76.5102132  41.4775296  61.9580756  75.9856142  41.4273250
  59.7872386  63.5744579  38.6986000  59.4575716  64.0255722  38.0289698
  59.1117388  63.4960742  39.2459006  59.6382822  63.6295714  38.6809223
  65.4042794  72.9449808  31.5575286  65.3194089  73.8010775  31.7024855
  65.8927177  72.6694133  32.2257445  65.4631691  73.0307130  31.6777367
  66.9948793  59.5630102  36.9435610  66.6802234  60.2533580  37.3756033
  66.4775735  59.5074884  36.2421111  66.8713264  59.6564990  36.9032559
  66.3361227  69.5634603  33.0573021  65.8072699  69.7794236  33.7170327
  66.8586247  70.2570741  32.9773990  66.3349680  69.6977740  33.1428620
  58.2260835  73.4597819  31.8580489  57.6418050  73.9647851  32.2646353
  57.8230930  73.2340206  31.1177081  58.0800139  73.5006068  31.8085514
  53.7804864  79.1752581  38.6604160  53.2972442  79.9003070  38.6363744
  54.5928182  79.4728711  38.7714318  53.8295611  79.3254934  38.6731440
  59.8519018  77.9684761  41.2653975  59.3345959  77.6092176  40.6615283
  60.5493409  77.4446936  41.2760041  59.8784599  77.8382449  41.1784233
  61.0753070  77.7010735  46.2087810  60.5123904  77.2883345  46.7327471
  61.8374093  77.6263641  46.6280953  61.1047518  77.6288136  46.3480810
  62.6838050  69.7063471  30.3349409  62.9234053  69.9141455  29.5224753
  63.0053891  68.9020980  30.4438354  62.7675207  69.6177573  30.2309962
  57.9928340  61.6356867  34.1808947  58.7474308  62.0035184  33.9425998
  57.8155874  62.0096422  34.9488127  58.0782818  61.7455055  34.2593836
  56.6349061  79.6908756  38.8124440  57.3369640  79.1760746  38.8697197
  56.5546544  80.0182908  39.6171315  56.7272821  79.6622983  38.9397232
  71.2863239  67.7851308  42.2256487  70.4491660  67.8553495  42.4604081
  71.2551469  67.7875803  41.3530789  71.1581521  67.7961535  42.1316035
  57.6827968  69.9284343  47.9404855  57.8548471  69.8190238  48.7890137
  58.2197325  70.5738749  47.7036048  57.7872972  70.0076345  48.0309952
  56.3485404  64.0427186  30.8787060  56.1660978  64.2599067  30.0528053
  57.2111017  64.1566199  30.9345675  56.4489994  64.0917084  30.7641547
  55.9599836  75.8815108  38.3210048  56.7988736  76.1138041  38.3683810
  55.9911606  75.0119420  38.2517084  56.0881554  75.7872055  38.3174693
  56.5852539  76.3015984  42.6223354  57.1250764  76.1587115  43.2926726
  55.9022486  76.7012734  42.9907380  56.5644693  76.3395655  42.7757775
  62.0285124  61.0453597  33.9136084  62.7571284  60.8669552  33.4674240
  62.1180017  61.8871677  34.1243262  62.1491786  61.1437475  33.8789602
  66.0093424  71.9806984  37.8168378  66.7650939  72.4138499  37.8557287
  66.1155749  71.3311754  38.3903014  66.1363595  71.9484468  37.9066404
  51.9889684  72.5216274  42.7757775  51.7228100  71.7055391  42.9348766
  52.0028249  72.5669430  41.9053291  51.9514407  72.4073179  42.6711257
  68.9671078  62.8494089  40.8100209  69.6096987  62.9192194  41.3962124
  69.2194099  62.1823312  40.3079751  69.0993210  62.7620438  40.8227488
  55.8947431  67.3201359  29.3909533  55.1805609  67.0339538  29.8031966
  56.3791400  67.6597985  30.0315921  55.8606795  67.3283009  29.5465168
  56.7388291  66.0594653  45.4224783  56.0460088  65.5891632  45.6685515
  57.3548618  65.8332957  45.9966490  56.7272821  65.9561785  45.5433936
  63.0694749  75.8231313  29.7671342  63.4845898  75.4916337  29.0755837
  62.2386679  75.5900215  29.6391478  63.0082758  75.7402569  29.6462189
  52.3983098  73.3075054  40.0569520  52.2158671  73.2821940  39.2041812
  53.1332767  73.7773992  40.0958428  52.4797162  73.3736416  39.9367438
  68.4682772  73.5426564  37.2002407  68.7038362  73.6871763  36.3729258
  68.6172336  74.3068972  37.5933921  68.5248576  73.6765618  37.1366011
  55.4628850  70.0260057  46.5651628  56.1868822  70.0113087  47.0516523
  55.5644986  70.7355412  46.0673596  55.5847059  70.1284760  46.5630415
  70.2973229  72.3828230  35.0372011  70.6281446  72.9155870  34.4312106
  70.8706317  72.4367118  35.6933962  70.4306908  72.4697799  35.0449793
  62.8373799  73.5059141  51.4300575  62.0446780  73.8202653  51.6153195
  62.9522726  73.7210610  50.5921360  62.7369210  73.5842978  51.3338910
  65.5105118  70.2293132  35.7195591  65.6051973  70.9682427  36.1735217
  64.8863962  69.8010608  36.1530156  65.4314148  70.2754453  35.8503739
  63.7657592  73.4079345  46.3685872  64.3396454  72.7706589  46.5234436
  63.6872396  73.4083427  45.4995530  63.8390827  73.3144456  46.2632283
  52.3654008  70.1868555  40.2068586  52.9427511  70.0505005  40.8460831
  51.6668070  69.7304339  40.4614170  52.3475030  70.0990821  40.3390876
  65.7628140  72.0741872  28.9532543  65.6808302  72.1444059  29.8187530
  66.4007860  72.6371616  28.7616284  65.8447977  72.1680843  29.0522493
  59.1221311  71.8402610  38.4207069  58.8640555  71.0074345  38.3938369
  59.1769793  72.0660223  37.5799570  59.0921089  71.7500381  38.2927206
  64.2022361  63.9431061  38.5211162  63.4978688  63.4540246  38.6795081
  64.2507335  63.9553535  37.6499606  64.1052412  63.8720709  38.4150502
  58.0956023  69.3940373  38.9071964  57.5205614  69.5532541  39.5435925
  57.7191699  68.7575782  38.4440415  57.9558835  69.3238186  38.9326523
  61.7629311  67.8663722  43.7664343  61.3743744  67.4417940  43.1116534
  61.0984010  68.1145872  44.2741369  61.6076239  67.8402443  43.7452210
  71.4052581  67.6238727  36.5412173  71.1489145  66.8118668  36.3510055
  72.2481895  67.6316294  36.3142360  71.4918606  67.5050724  36.4796990
  47.8412842  69.0380447  36.9216405  47.9273094  68.6612316  37.7029935
  48.4688639  68.6640893  36.4436363  47.9469393  68.9265930  36.9661882
  65.5855673  61.5638351  41.2788327  65.9666185  60.8816522  41.6656201
  64.7818957  61.2747953  41.0963991  65.5232135  61.4205399  41.3092383
  62.8668250  72.0962327  31.9641150  63.6808889  72.3877219  31.8523921
  62.8027391  71.4422189  31.3899442  62.9770989  72.0427521  31.8629987
  58.7376158  75.5683844  37.0913462  59.3750105  75.3295592  37.6365255
  59.1631230  75.7721003  36.3566622  58.8952324  75.5634854  37.0630619
  53.4288800  77.8072180  40.9747765  53.4692946  78.0787032  40.1467545
  53.9883324  78.3314089  41.3905553  53.5172146  77.9247936  40.9139654
  59.3778973  70.7886134  31.4288351  59.7624126  70.5693840  32.1804896
  59.1290593  71.6149079  31.5589427  59.3981046  70.8784280  31.5589427
  59.5447513  64.0692549  51.1450935  59.2300954  64.8392112  50.8820498
  59.2237446  63.5062805  50.5603162  59.4506432  64.1002818  51.0192285
  61.1197630  76.0456267  38.7707248  61.1936638  75.8831438  39.6249098
  61.9367136  76.2346456  38.5267730  61.2513989  76.0493009  38.8605273
  54.8803387  76.3914129  35.8001691  54.0541504  76.6375867  35.6735970
  54.9415378  76.3126210  36.6663749  54.7677554  76.4159078  35.9090636
  57.0979410  62.4583070  36.7597132  56.2301836  62.5305670  36.8254741
  57.3854615  63.2605149  36.9485107  57.0119158  62.5877218  36.7971898
  66.2212299  62.6060930  45.0908453  66.9665891  62.4170740  44.6771879
  65.8049604  63.1319168  44.5322310  66.2697273  62.6563075  44.9473027
  59.6602216  79.0091010  33.5020721  59.9500514  78.6179991  32.7779948
  60.3905696  79.1907715  33.9425997  59.8109100  78.9784823  33.4603528
  73.5974570  69.9770158  40.0413958  74.1482492  69.3438227  40.2811050
  73.5818685  70.5085551  40.7329463  73.6759766  69.9619106  40.1792817
  60.2496961  73.8108756  44.5873852  59.7508654  74.5224523  44.6658740
  61.0597185  74.1309422  44.5492014  60.2953068  73.9635604  44.5930420
  57.6008131  80.9858392  36.5680871  57.3808427  80.6955747  37.3607538
  57.3802653  80.3273347  36.0398783  57.5355725  80.8458100  36.6069780
  56.5125078  73.0731709  38.8336573  56.2238327  72.4469180  39.3682300
  57.3808426  73.0151996  38.9001253  56.5985330  72.9719253  38.9227527
  67.3002976  68.2166492  39.1518554  66.9567742  67.4956827  39.5025804
  67.3996019  68.0080343  38.3096913  67.2645019  68.0790695  39.0790235
  59.1764019  66.6689800  49.8836150  58.3663795  66.9747580  49.7725992
  59.6538706  67.3895382  49.9988734  59.1267498  66.8204401  49.8843221
  58.0355578  75.8835521  40.1319053  57.5136332  76.0235813  40.8170918
  58.4229599  75.1246185  40.3221170  58.0159279  75.7921045  40.2620130
  55.0246762  65.9341330  34.2014008  54.7371558  65.5642600  33.4645955
  55.7117231  66.4036185  33.9397713  55.0835660  65.9488299  34.0529083
  59.4621904  72.9139540  35.5300544  59.2664687  73.5214275  34.9360847
  59.6856250  72.2207484  35.0492218  59.4656545  72.9017066  35.3716625
  57.8600434  69.7994278  35.6481412  58.5823086  69.9635436  35.1885218
  57.3808427  70.5203943  35.5420752  57.8964165  69.9292508  35.5647026
  65.8193942  66.1358077  41.0278097  64.9805042  66.1619356  40.7916361
  65.8898309  66.7828812  41.6083444  65.7062335  66.2354203  41.0787214
  55.5108051  72.2052350  44.7535552  56.0229148  72.4836604  44.1044312
  55.2244393  72.9441644  45.1198365  55.5442914  72.3554704  44.7125430
  64.2663220  63.0343454  35.7605713  64.9689573  62.8351202  35.2825672
  64.0007409  62.2619396  36.0674557  64.3309852  62.8906420  35.7351155
  69.6951465  71.3426064  38.3139339  69.6085440  71.4981490  39.1674118
  69.2401945  71.9864139  37.9398744  69.6154722  71.4601819  38.3846446
  52.5974957  66.7122542  35.0499289  52.6991093  67.5148704  35.3780264
  53.3930844  66.5109878  34.7522369  52.7302863  66.8008441  35.0534644
  59.0291776  64.2978739  44.8136594  58.8374973  64.3133873  45.6636017
  59.8790372  64.4942413  44.7903249  59.1267498  64.3293090  44.9359889
  53.4138689  66.8269720  42.7920410  53.2724181  65.9753661  42.9164918
  53.6979253  66.8698381  41.9682616  53.4346535  66.7069470  42.6888034
  63.5677282  68.6636811  36.9364899  63.3211996  68.5832562  37.7701688
  63.8962405  67.8790278  36.7427426  63.5798525  68.5363076  37.0312422
  65.8003415  71.6716545  46.9774062  65.7951454  70.7996362  46.9816488
  66.5064409  71.8704714  46.5043517  65.9048419  71.5720419  46.9081097
  59.5274309  71.3993529  46.3487882  59.6717685  71.9794737  45.7130992
  59.8749957  71.7769826  47.0537736  59.6001770  71.5414233  46.3586877
  61.6994226  70.5983698  44.1313013  60.9517540  70.7914712  43.7261291
  61.8535751  69.7728917  43.8937135  61.6116654  70.5048809  44.0358419
  58.6002064  79.5896301  43.2148909  58.7491628  79.0299217  42.5622313
  59.3802066  79.6688303  43.5981427  58.7376157  79.5181866  43.1745858
  61.9396003  64.4934248  45.0208417  62.3968617  65.2258223  45.1481209
  62.0152332  64.0700714  45.7795673  62.0186973  64.5391486  45.1509494
  54.1828994  64.7400068  46.1097861  53.6471184  64.1280426  46.4258628
  54.2446759  65.3148204  46.7631527  54.1124627  64.7346996  46.2533288
  66.4123329  57.6724123  38.8902260  66.5306897  58.1300587  38.1569563
  66.2385505  56.8669385  38.6038478  66.4042500  57.6217896  38.7403194
  61.7825611  78.2811943  35.3257005  62.5475502  78.0121586  35.0039670
  61.6803701  77.7961953  36.0427068  61.8807107  78.1701507  35.3836833
  59.8178381  66.4836352  41.8650241  59.0274456  66.3027812  42.1867577
  60.2139004  65.7063305  41.8480536  59.7595257  66.3423813  41.9102789
  64.3044272  75.3124127  27.3056955  65.0717257  75.3724251  26.8962806
  63.8575581  74.7404568  26.8213273  64.3517699  75.2360702  27.1734665
  65.2022067  74.1178782  39.5909687  64.5267069  73.8864015  40.0923074
  65.2114443  73.5099965  38.9651792  65.1040572  73.9937708  39.5725839
  62.3316211  68.9596611  46.3473740  62.2675353  69.8206568  46.2193877
  62.4713399  68.6428605  45.5469291  62.3431681  69.0396778  46.2101953
  61.0135305  71.6528751  40.4889943  60.5897554  71.8533250  39.7528961
  60.8380160  70.8057599  40.6014243  60.9246186  71.5577532  40.3963633
  56.3017750  72.1480802  35.9217915  56.4582369  72.0827605  36.7773907
  56.6418343  72.9229355  35.7096595  56.3750985  72.2530000  36.0172510
  62.8396895  71.5238686  34.7911279  63.3812440  71.0209067  35.2549899
  63.1543454  71.4703880  33.9800764  62.9661292  71.4418107  34.7395091
  61.0083345  76.9156037  32.0751307  61.0776165  76.0570576  32.2144307
  61.7871800  77.1327918  31.7470331  61.1336195  76.8208901  32.0468464
  63.9886164  66.4174990  44.8433579  64.2028134  65.7785904  44.2896933
  63.3720063  66.8620814  44.4141441  63.9291493  66.3885134  44.6984010
  52.8752012  69.3315753  36.2378683  53.2550977  69.7500298  35.5738950
  52.3007377  69.9129208  36.5447526  52.8463337  69.4793611  36.1855424
  66.1525252  68.0264055  45.7816886  65.3401934  67.7189946  45.8630059
  66.6115187  67.5463056  46.3459598  66.1005637  67.9100548  45.8771480
  65.5630507  75.9043727  36.2293831  65.2045162  76.0758370  37.0057863
  65.0769218  76.3656933  35.6721829  65.4389204  75.9982698  36.2619100
  63.3800893  59.5274926  39.8320922  62.5094451  59.5013647  39.7854231
  63.6341234  59.3552118  39.0146768  63.2894453  59.4985070  39.7041059
  60.3518872  71.5842893  28.7694065  60.6411397  72.3607775  29.0437639
  60.4390671  71.0731624  29.4708564  60.4073129  71.6234811  28.9136563
  63.2478760  69.4324127  50.5645589  63.7178391  70.0566243  50.9513463
  63.2940640  68.7641102  51.1238803  63.3246636  69.4258807  50.7045660
  60.4050033  61.5381154  41.2894392  59.8888522  60.8461346  41.4145971
  59.8443962  62.2051931  41.2356991  60.2456547  61.5344412  41.3000458
  62.4742267  62.0774114  43.1187245  62.0874020  62.1023146  43.9000775
  61.9875204  61.5115793  42.6661761  62.3454776  61.9969865  43.1675149
  68.4492246  68.6436769  41.7426947  68.0219854  68.5563118  40.9875047
  67.8118299  68.7514545  42.3281791  68.2921854  68.6469429  41.7172389
  62.1399409  58.9641100  45.4097505  62.7692527  59.5001400  45.1318575
  62.3085271  58.8718459  46.2611070  62.2577203  59.0302462  45.4946033
  61.9413323  63.7512295  47.6823916  62.7686753  63.4797443  47.7382531
  61.9621169  64.5473136  48.0387734  62.0666173  63.8292049  47.7439099
  56.5182813  70.8976157  40.8694177  55.6770820  70.7980031  41.0773071
  56.7272821  71.6671638  41.2208498  56.4247506  70.9968201  40.9521492
  53.9958380  68.5195694  38.6978928  53.6015078  68.5938706  37.9229037
  53.4398497  68.9053641  39.2487289  53.8561193  68.5877469  38.6646587
  65.6323327  61.4976988  38.3782807  65.8372920  61.4299296  39.2239804
  65.3049751  62.3035810  38.3103984  65.6138575  61.6062929  38.4942462
  60.3299478  68.8257557  40.1191775  60.0262616  68.2713545  40.7202182
  59.6278899  69.0049766  39.6319809  60.1815688  68.7702339  40.1361480
  59.3865575  66.1358076  34.6836476  59.6625310  65.4176989  34.2714044
  59.9864245  66.7342996  34.4757582  59.5158840  66.1178447  34.5917238
  58.3917829  76.0407277  44.8263872  58.2838184  76.0509339  45.6925930
  58.6013611  76.8662058  44.6368826  58.4067940  76.1648352  44.9267964
  68.8857015  62.0508753  37.8585572  68.2731328  62.5379155  38.2439304
  68.9821190  61.3752243  38.4023223  68.8094912  62.0227061  37.9964430
  62.8876096  63.8071594  32.9583071  63.3419842  63.9782154  33.6830916
  63.3616141  63.1939704  32.5580847  63.0244416  63.7422479  33.0056833
  56.8052244  64.4521917  42.9553828  57.2653725  64.5260847  43.6928951
  56.8508351  65.2503171  42.6053649  56.8802799  64.5816064  43.0126584
  58.4535594  65.1188612  47.5225855  58.0621159  64.4721959  47.9581632
  58.6221456  65.7100048  48.1420110  58.4206504  65.1102880  47.6788561
  60.2289116  70.5114128  34.0628079  60.9731161  70.8988404  34.3011029
  60.3749812  69.6671553  34.2268566  60.3599701  70.4444601  34.1222048
  62.1468691  62.3064387  39.0959940  61.3004736  62.4787195  38.9701290
  62.1439824  61.5013731  39.4325768  62.0215841  62.2125416  39.1271067
  63.2166992  66.0839601  39.9621998  62.7426946  65.5581363  40.4727309
  63.5885127  65.5369074  39.3936860  63.2016881  65.9255598  39.9537145
  53.5940022  68.0811108  45.3305544  54.4565635  67.9806817  45.2442874
  53.2631805  67.5005817  44.7691116  53.6725218  67.9802735  45.2350950
  69.4803722  71.1441977  41.3728779  69.2401945  70.3048392  41.3771205
  69.9595729  71.2242144  42.0969552  69.5155906  71.0323377  41.4803581
  65.1450491  66.9776156  33.0247752  64.6173510  67.0604900  32.3353461
  65.6046199  67.7194027  33.0212396  65.1352342  67.0996818  32.9222447
  71.4808909  67.9243434  39.3258038  71.2418679  67.8839268  38.4878822
  71.6442810  68.7714586  39.4523759  71.4699213  68.0435519  39.2211520
  68.0854939  72.3093383  45.2563083  68.8089138  71.8565910  45.0774103
  67.8204902  72.5898049  44.4735411  68.1536213  72.2844352  45.1141798
  56.9541808  66.9053557  41.9915962  56.3294878  66.9171949  41.3841915
  56.6187403  67.3813732  42.6407202  56.8127300  66.9772074  41.9972530
  57.1383556  65.2478676  28.0488647  56.7896361  65.8998401  28.5120196
  56.6580002  65.2335789  27.3212518  57.0153800  65.3421729  28.0099738
  53.6667483  74.9654017  43.4319726  53.1367408  74.2746456  43.4814701
  53.9392577  74.9564202  42.6032435  53.6292206  74.8621149  43.3167142
  64.6987574  75.5479719  32.1557409  65.4221773  76.0137832  32.0121982
  64.2588165  75.6153329  31.4055006  64.7403266  75.6263556  32.0242190
  63.8673729  72.4077262  43.4058098  63.2530722  71.8635312  43.7006733
  64.3841014  71.8941498  42.9263914  63.8529391  72.2513671  43.3782326
  63.1070026  73.4781532  41.1402396  62.6797634  72.8531250  40.7067832
  63.0994970  73.1956454  41.9661404  63.0429167  73.3434312  41.1982224
  56.2232553  68.5146705  44.2090830  56.3826040  67.7590029  44.6142552
  56.0425447  69.0637644  44.8631568  56.2197912  68.4840519  44.3653536
  64.1652856  60.6807940  44.7641620  63.6693417  60.8771615  44.0733187
  64.9221918  61.0800609  44.5930422  64.2039681  60.7685674  44.6361757
  61.4355736  64.3550286  41.3544930  61.4598223  63.8210399  40.6657710
  61.6867209  63.8467595  42.0170521  61.4765654  64.2011190  41.3509575
  48.9463325  71.6381781  40.7888075  48.8406775  71.5928626  39.9240159
  48.1963545  71.9835562  41.0702359  48.8198928  71.6822689  40.7025404
  57.7157058  63.0821105  40.7350675  57.7555429  63.5830311  41.4485382
  56.8906723  63.1731498  40.4656598  57.5996584  63.1702921  40.8001213
  59.8986671  72.6481845  48.8370969  59.0482301  72.7853559  48.9728614
  60.0614799  71.9145623  49.2818671  59.7970534  72.5595946  48.9226569
  59.1371421  69.5981614  43.0324574  58.3063351  69.7655432  42.8259822
  59.0822938  69.2217565  43.8173459  59.0060836  69.5671346  43.1173102
  56.9455205  63.0890507  48.6680984  57.5707908  62.5452640  48.9410417
  56.4905684  62.6085425  48.0988775  56.9703465  62.9379989  48.6242578
  57.5107465  67.8737206  33.5614691  57.6510426  68.3709670  34.2643333
  58.0089998  67.1723500  33.7028905  57.6048546  67.8439185  33.6866270
  57.5407687  68.7404317  30.8907268  58.1752767  69.3364742  30.8256730
  57.6233298  68.4407775  31.7053138  57.6464238  68.7845225  31.0010355
  70.5190253  71.2719794  43.7593632  71.1108094  71.9117045  43.7911831
  70.9549248  70.5742831  44.0485699  70.6708684  71.2638145  43.8074465
  59.1186670  64.6718292  30.8652710  59.4402511  64.1921375  30.2111973
  59.3813614  65.4817938  30.6743522  59.2052696  64.7208190  30.7408202
  62.3483643  75.6937167  44.3851526  61.8408734  76.2473014  44.8292157
  62.0510289  75.7545457  43.5670301  62.2288528  75.7843478  44.3299983
  64.5145825  64.0590486  43.2276189  64.9400897  63.6063013  42.6159716
  63.9002818  63.5050557  43.5040977  64.4874471  63.9104463  43.1781215
  54.0460675  70.9372158  34.1596814  54.5552905  71.5336665  34.5408120
  54.5194948  70.6698131  33.4773234  54.1904051  70.9857973  34.1151337
  62.9540048  60.5305586  36.6366766  62.3108366  60.3803232  37.2051905
  62.6139455  60.2847931  35.8715871  62.8085126  60.4717709  36.6069782
  67.5439395  68.4865013  36.0596775  66.8730585  69.0294715  35.9309841
  68.2379145  68.9559868  35.8178470  67.5468262  68.6363284  36.0052303
  67.7067522  64.9420897  38.9687148  68.0595132  64.5150619  39.6432947
  66.8482324  64.8571740  39.0988225  67.6316967  64.8665637  39.0882159
  56.4051207  67.5728416  37.0269995  55.6863196  67.9892549  37.2942858
  56.7763569  68.1382655  36.4761633  56.3543139  67.7177698  36.9852802
  65.7050788  68.2056265  42.9171990  65.6848715  68.0239560  43.7706769
  65.7529989  69.0768284  42.8931574  65.7085429  68.3072803  43.0395285
  63.6497118  74.7943457  48.8420467  63.6092973  74.1493134  48.2565623
  64.4620436  74.7380075  49.1545879  63.7640271  74.6902424  48.8017416
  62.1797781  66.6126416  32.3643374  61.5862621  66.9343413  31.8127941
  62.2173059  65.7667512  32.1564480  62.0972171  66.5350744  32.2526145
  69.1391582  60.0639308  39.8971461  68.6322447  59.3568448  39.8292638
  69.9359016  59.7332497  40.0272537  69.1818821  59.9112460  39.9070456
  65.0555598  66.5705921  35.7945124  64.8269291  66.5938622  34.9523483
  65.3153674  65.7463388  35.9140135  65.0601786  66.4522001  35.6870322
  59.3374826  68.4240394  45.3970225  58.8253730  67.8161577  45.7555256
  59.1654323  69.1396986  45.8644200  59.2364464  68.4403693  45.5186448
  54.1840541  66.8677969  48.0472586  54.0143131  67.5279344  47.5020793
  53.7406491  67.0784530  48.7685076  54.0939875  66.9963951  48.0734216
  58.1100361  65.1082467  37.0899320  58.5857727  65.4699547  36.4549501
  57.6088960  65.7638935  37.3699463  58.1065720  65.2576656  37.0376061
  63.2143897  66.3464638  47.8372480  63.7715327  66.1178448  47.2050946
  62.8904962  67.1070304  47.5607693  63.2490307  66.4248475  47.7028977
  51.0842606  69.7724835  43.3061076  50.5369325  69.1025480  43.4241945
  51.8734984  69.4054682  43.3704544  51.1194789  69.6189821  43.3329777
  60.9327014  69.4332292  48.8024487  61.6838341  69.7483968  49.1164041
  61.1249591  69.2311463  47.9758409  61.0718428  69.4499673  48.7267883
  60.1527014  67.2523667  30.4572704  60.5325979  67.2703296  29.6723819
  59.4119610  67.6977656  30.3363551  60.0995851  67.3205441  30.3236272
  67.7812304  65.5605858  36.0448283  67.7806531  65.4054515  36.9032559
  67.5768484  66.4068845  35.9889668  67.7512082  65.6626479  36.1636222
  49.8429575  68.9845642  40.4607099  49.6651336  68.5322251  41.1862015
  49.5548597  69.7871804  40.6445577  49.7742528  69.0368200  40.5950602
  65.5053156  70.2403360  39.6984490  66.0006822  69.5226355  39.6588510
  64.6952932  69.9374157  39.5838977  65.4597050  70.0901006  39.6758215
  60.9511768  74.0901173  31.8481494  60.1423091  73.7667847  31.8014804
  61.4586677  73.3834395  31.7809743  60.9061435  73.9382489  31.8311788
  51.5802045  71.5173366  37.5728858  50.7147565  71.5059057  37.4611630
  51.6800861  71.3303589  38.4199998  51.4676212  71.4879427  37.6817803
  67.5704975  72.9907047  42.3861618  67.9960047  72.4681469  41.8332043
  67.2061895  73.5887885  41.8650241  67.5791578  73.0017274  42.2270628
  57.2059055  81.2871265  41.1458964  57.5205614  82.1007653  41.1536746
  57.6152468  80.9021483  41.8141123  57.3127153  81.3499967  41.2463056
  64.1583575  76.7041312  38.7162776  64.6294753  77.4181574  38.8852761
  64.4943753  76.1040062  39.2522645  64.2778690  76.7212776  38.8195152
  61.0753070  61.4768782  45.6720871  61.2080975  60.6799776  46.0001846
  61.4598222  62.0035185  46.2519146  61.1509398  61.4368699  45.8064374
  64.7957521  76.4959246  45.4790468  64.2478467  75.8717129  45.2110534
  65.2570550  76.6853518  44.7634548  64.7824730  76.4318296  45.3340900
  64.1485425  58.3999108  42.2701964  63.3431388  58.2896838  42.5869802
  64.0192160  58.5011564  41.4131830  64.0105558  58.3982778  42.1910004
  67.6051385  64.5644600  42.8641661  67.0214374  65.0653807  42.4519228
  67.9255679  64.0574156  42.2305984  67.5664561  64.5636435  42.7100168
  60.1446184  63.4785195  33.1400336  60.9661879  63.6483508  32.8982030
  59.6815835  63.6332456  32.4166633  60.1977347  63.5266928  32.9971980
  58.7341516  61.4727957  43.9198764  59.2785929  61.1319084  44.5103106
  58.7878452  62.3313419  44.0620049  58.8230636  61.5483217  44.0280638
  54.5472075  75.2344373  40.7937572  55.1516932  75.1940207  40.1651393
  54.3399388  76.0815525  40.8241628  54.6060972  75.3532376  40.7053689
  49.7823357  74.2178991  40.6636495  49.6847635  73.4075262  40.9726552
  50.5652227  74.1970784  40.2782764  49.8839494  74.0946081  40.6523358
  36.6349987   0.0212070  21.9082733  36.6043992   0.8756706  22.0801002
  37.2331336  -0.2792638  22.4668876  36.7187145   0.1028566  22.0157535
  29.8349672  -0.8912279  26.6635663  28.9787568  -0.7303781  26.7144780
  29.8817326  -1.7620215  26.6840724  29.7148784  -0.9961478  26.6741729
  24.2190812   8.6450438  22.4272895  23.4673711   8.2665977  22.1988940
  24.6676823   8.6768872  21.6791705  24.1740479   8.5936046  22.2830397
  33.1443389   5.3774246  36.2696119  33.8510156   4.8826277  36.3983054
  33.3331324   5.8183328  35.5398777  33.2771294   5.3692597  36.1805165
  29.6715772   9.0675808  17.8558442  29.3367140   9.7452730  17.4202664
  30.1842642   8.6781119  17.2675314  29.6981353   9.1100386  17.7045233
  29.2120063  11.0190077  23.7969554  29.5959442  11.5876975  23.2574329
  29.1479204  10.2939587  23.3175370  29.2593490  10.9965540  23.6463416
  32.6801493   1.1679764  29.3067315  33.2257453   1.8464851  29.3661285
  32.6218369   1.0267225  28.4468896  32.7517407   1.2471766  29.1879375
  25.7975568   8.6568831  24.6935667  25.8985931   7.8469185  25.0032795
  25.2017313   8.5625777  24.0635346  25.7248107   8.5233859  24.6461906
  34.4566562   2.5964372  20.1801043  34.3406088   3.3472058  20.6093181
  35.2522448   2.3388325  20.4297130  34.5571151   2.6699218  20.2805134
  25.6376308  13.5746420  26.0950523  26.2813763  14.0159584  26.4846682
  25.9632563  12.7699846  26.0080782  25.7808136  13.5211614  26.1396001
  18.9940612   4.6789117  24.3188001  18.7590797   3.8456770  24.2120270
  19.1326253   4.9593783  23.5049202  18.9796275   4.5972621  24.1830356
  26.3396887   6.5858395  21.4670385  26.6612728   7.1263602  20.8631693
  26.9868984   6.0155166  21.5992675  26.4822942   6.5817570  21.3977420
  28.3898595  -1.4125610  21.5504772  29.0878760  -1.2337483  22.0426235
  28.7050928  -1.9355271  20.9275161  28.5393933  -1.4631838  21.5306782
  21.0199833   0.3927129  29.4615878  20.8958530   0.9789575  30.0965697
  21.6718117  -0.1012675  29.7628153  21.0973482   0.4065934  29.6001807
  28.5786531   4.9744835  21.5384563  29.0180166   4.3661935  21.9839336
  28.4291194   4.5952208  20.7670028  28.6207996   4.8283306  21.4903731
  26.0458174   3.5688846  28.7403389  26.6907176   3.0761290  28.4214337
  26.2859951   3.7113633  29.5669467  26.1768759   3.5166289  28.8152922
  28.5844265   6.4143752  28.3910281  28.8667508   5.6195158  28.1697037
  29.3130425   6.8924340  28.4115342  28.7333829   6.3678349  28.3613296
  32.1795867   3.3272016  18.4915333  32.0947162   4.1832983  18.6364901
  32.6680251   3.0516340  19.1597492  32.2384765   3.4129337  18.6117414
  33.1114301  -0.0543190  19.9913068  32.5825772   0.1616444  20.6510374
  33.6339320   0.6392948  19.9114037  33.1102753   0.0799947  20.0768667
  38.5662353   5.5203114  25.3646112  37.7360057   5.7313758  25.5279529
  38.5171606   4.6940169  25.0888396  38.4369089   5.4292721  25.3483478
  20.5557937   9.5574788  25.5944207  20.0725515  10.2825278  25.5703791
  21.3681255   9.8550918  25.7054365  20.6048685   9.7077142  25.6071486
  26.6272091   8.3506969  28.1994022  26.1099033   7.9914384  27.5955330
  27.3246482   7.8269143  28.2100088  26.6537672   8.2204657  28.1124280
  30.2835683   8.8001783  34.1610195  30.3719029   8.6127923  35.0088405
  30.7125396   8.1539212  33.7615041  30.3597785   8.6764790  34.2281946
  27.8506143   8.0832943  33.1427857  27.2876978   7.6705552  33.6667518
  28.6127166   8.0085848  33.5621000  27.8800591   8.0110343  33.2820857
  23.4102134  10.0730964  25.7464487  24.1122713   9.5582953  25.8037244
  23.3299617  10.4005115  26.5511362  23.5025895  10.0445190  25.8737279
  38.0616312  -1.8326485  29.1596533  37.2244733  -1.7624298  29.3944128
  38.0304543  -1.8301990  28.2870836  37.9334594  -1.8216258  29.0656081
  24.4581041   0.3106551  34.8744902  24.6301544   0.2012445  35.7230184
  24.9950398   0.9560956  34.6376094  24.5626045   0.3898552  34.9649999
  22.7352910   6.2637316  25.2550095  23.5741809   6.4960249  25.3023857
  22.7664679   5.3941627  25.1857130  22.8634627   6.1694262  25.2514740
  23.3605613   6.6838191  29.5563401  23.9003838   6.5409322  30.2266773
  22.6775559   7.0834942  29.9247427  23.3397767   6.7217862  29.7097822
  32.7846498   2.3629192  24.7508425  33.5404013   2.7960706  24.7897334
  32.8908822   1.7133961  25.3243061  32.9116668   2.3306676  24.8406451
  35.8226669   6.1902469  25.5010828  35.3861901   6.1939211  26.2569799
  35.4889584   6.8707968  25.0690405  35.7089289   6.2914925  25.5491660
  30.3955742   8.2310802  36.8253978  31.1796159   8.3441650  37.1909720
  30.1952337   7.4051939  37.0212664  30.4821768   8.1257521  36.9088364
  18.7642758   2.9038482  29.7097822  18.4981173   2.0877599  29.8688812
  18.7781322   2.9491637  28.8393338  18.7267480   2.7895387  29.6051304
  30.5526136  10.1420904  30.4720434  29.7541381   9.9020404  30.7294302
  31.0012147  10.1935297  31.2187481  30.5000747  10.1143295  30.6205358
  38.9571015   2.9083389  24.3930465  39.6187449   2.3474057  24.2926374
  38.3162427   2.4135420  24.7183156  38.9599882   2.7519798  24.4262805
  29.8447823   6.2053520  16.7011388  30.2598971   5.8738544  16.0095884
  29.0139752   5.9722422  16.5731525  29.7835831   6.1224776  16.5802236
  19.1736171   3.6897261  26.9909566  18.9911745   3.6644147  26.1381859
  19.9085840   4.1596199  27.0298475  19.2550235   3.7558623  26.8707485
  35.2435846   3.9248771  24.1342454  35.4791435   4.0693970  23.3069305
  35.3925409   4.6891179  24.5273968  35.3001649   4.0587826  24.0706058
  22.2381923   0.4082264  33.4991675  22.9621895   0.3935295  33.9856570
  22.3398060   1.1177619  33.0013643  22.3600132   0.5106967  33.4970462
  37.0726302   2.7650437  21.9712058  37.4034519   3.2978077  21.3652153
  37.6459390   2.8189325  22.6274009  37.2059981   2.8520006  21.9789839
  29.6126872   3.8881349  38.3640622  28.8199853   4.2024861  38.5493242
  29.7275800   4.1032817  37.5261407  29.5122283   3.9665185  38.2678957
  32.2858191   0.6115340  22.6535638  32.3805046   1.3504634  23.1075263
  31.6617035   0.1832815  23.0870202  32.2067222   0.6576660  22.7843785
  30.5410665   3.7901552  33.3025919  31.1149527   3.1528797  33.4574483
  30.4625469   3.7905635  32.4335576  30.6143900   3.6966664  33.1972330
  19.1407082   0.5690762  27.1408633  19.7180584   0.4327213  27.7800878
  18.4421143   0.1126546  27.3954217  19.1228103   0.4813028  27.2730923
  25.8974384   2.2224818  25.3547116  25.6393628   1.3896552  25.3278416
  25.9522867   2.4482431  24.5139617  25.8674162   2.1322589  25.2267253
  24.8709096  -0.2237420  25.8412011  24.2958687  -0.0645252  26.4775972
  24.4944772  -0.8602011  25.3780461  24.7311908  -0.2939607  25.8666569
  28.5382385  -1.7514071  30.7004389  28.1496817  -2.1759853  30.0456581
  27.8737083  -1.5031921  31.2081416  28.3829312  -1.7775350  30.6792257
  29.6421323   2.4784534  18.8981196  30.4561962   2.7699427  18.7863968
  29.5780464   1.8244396  18.3239489  29.7524062   2.4249729  18.7970034
  35.8630813   5.1610530  33.3110772  35.6269450   4.3298595  33.1922833
  36.5074042   5.1096137  33.8965616  35.9225484   5.0308218  33.3796666
  25.5129231   5.9506051  24.0253508  26.1503178   5.7117799  24.5705302
  25.9384303   6.1543210  23.2906669  25.6705397   5.9457062  23.9970666
  20.2041874   8.1894388  27.9087812  20.2446019   8.4609239  27.0807592
  20.7636398   8.7136296  28.3245600  20.2925219   8.3070143  27.8479700
  36.8867234   4.9454979  29.3739066  36.5813051   5.6783036  29.7352382
  36.1673449   4.5392908  29.0931853  36.7354576   4.9936712  29.3852204
  27.8950703   6.4278474  25.7047295  27.9689711   6.2653646  26.5589145
  28.7120209   6.6168664  25.4607776  28.0267062   6.4315216  25.7945320
  42.5869026   1.5847979  28.7007411  42.5193526   1.6043939  27.8309997
  42.5724688   2.4278307  28.9263081  42.5747782   1.7121714  28.6059888
  21.6556460   6.7736337  22.7341738  20.8294577   7.0198074  22.6076017
  21.7168451   6.6948418  23.6003796  21.5430627   6.7981286  22.8430683
  26.4355289   9.3913217  20.4360768  26.7253587   9.0002198  19.7119995
  27.1658770   9.5729922  20.8766043  26.5862173   9.3607031  20.3943575
  40.3727643   0.3592366  26.9754005  40.9235565  -0.2739565  27.2151097
  40.3571759   0.8907758  27.6669509  40.4512840   0.3441314  27.1132863
  27.0250034   4.1930963  31.5213899  26.5261728   4.9046731  31.5998787
  27.8350258   4.5131630  31.4832061  27.0706141   4.3457812  31.5270467
  24.3761204  11.3680599  23.5020918  24.1561500  11.0777954  24.2947585
  24.1555726  10.7095555  22.9738830  24.3108799  11.2280308  23.5409826
  23.2878152   3.4553916  25.7676619  22.9991400   2.8291387  26.3022347
  24.1561500   3.3974203  25.8341300  23.3738404   3.3541460  25.8567574
  34.0756049  -1.4011301  26.0858601  33.7320815  -2.1220965  26.4365851
  34.1749092  -1.6097449  25.2436960  34.0398092  -1.5387097  26.0130281
  26.5429160  12.7409989  22.2851610  27.1953218  12.2086432  22.5142636
  25.8454769  12.3878642  22.6719484  26.5359878  12.6099512  22.3763778
  23.4910425   5.0949167  21.6918984  24.2456393   5.4762206  21.9054447
  22.8981038   5.5460311  22.1465681  23.5147139   5.2177994  21.7901863
  34.5369078   5.0614403  21.6282589  35.1027111   5.7207613  21.5441132
  33.8896982   5.4064102  22.0998992  34.5247835   5.2096345  21.6855346
  25.9517092  -2.9487993  36.8176197  25.1416868  -2.6430213  36.7066039
  26.4291779  -2.2282410  36.9328781  25.9020571  -2.7973391  36.8183268
  24.8108652   6.2657728  27.0659100  24.2889405   6.4058020  27.7510965
  25.1982672   5.5068393  27.2561217  24.7912353   6.1743252  27.1960176
  31.0075657   8.0053188  21.0519669  30.7662333   7.2721048  20.6446734
  31.1876989   8.5540045  20.3986002  30.9983281   7.9775579  20.8949892
  26.2374977   3.2961747  22.4640591  26.0417760   3.9036482  21.8700894
  26.4609323   2.6029691  21.9832265  26.2409618   3.2839273  22.3056672
  24.6353507   0.1816485  22.5821459  25.3576159   0.3457643  22.1225265
  24.1561500   0.9026150  22.4760799  24.6717238   0.3114715  22.4987073
  32.5947015  -3.4819716  27.9618144  31.7558115  -3.4558437  27.7256407
  32.6651382  -2.8348980  28.5423491  32.4815408  -3.3823590  28.0127261
  22.2861124   2.5874558  31.6875599  22.7982221   2.8658811  31.0384359
  21.9997467   3.3263852  32.0538412  22.3195987   2.7376911  31.6465477
  36.4704539   1.7248271  25.2479386  36.3838513   1.8803697  26.1014165
  36.0155019   2.3686346  24.8738791  36.3907795   1.8424026  25.3186493
  25.8044849  -5.3199054  31.7476641  25.6128046  -5.3043919  32.5976064
  26.6543445  -5.1235379  31.7243296  25.9020571  -5.2884702  31.8699935
  30.3430355  -0.9540982  23.8704945  30.0965069  -1.0345231  24.7041734
  30.6715478  -1.7387514  23.6767473  30.3551598  -1.0814717  23.9652469
  34.2378404   5.7542377  27.6591727  34.0992763   6.4523423  28.1640469
  33.4578401   5.5991034  27.3027908  34.1021630   5.8342544  27.6818001
  32.5756489   2.0538753  33.9114108  32.5704527   1.1818569  33.9156535
  33.2817483   2.2526922  33.4383564  32.6801493   1.9542627  33.8421144
  26.3027382   1.7815737  33.2827929  26.4470758   2.3616945  32.6471039
  26.6503031   2.1592033  33.9877783  26.3754843   1.9236441  33.2926923
  28.4747299   0.9805905  31.0653060  27.7270613   1.1736919  30.6601338
  28.6288825   0.1551125  30.8277181  28.3869727   0.8871016  30.9698466
  25.3755137   9.9718508  30.1488955  25.5244701   9.4121424  29.4962360
  26.1555139  10.0510510  30.5321474  25.5129231   9.9004074  30.1085905
  35.7331776   5.1120631  18.4208226  35.3538585   4.3257769  18.4137515
  35.0698022   5.6607488  18.2779870  35.5790251   5.0765455  18.3989023
  27.9008438  10.1433151  31.4273446  27.8252109   9.4741962  31.9824234
  27.8298297  10.8450939  31.9414112  27.8789045  10.1478059  31.5850294
  28.7149076  -5.1243544  31.9548464  29.1721690  -4.3919570  32.0821256
  28.7905405  -5.5477079  32.7135720  28.7940046  -5.0786306  32.0849540
  28.5578685   8.6634150  22.2597052  29.3228576   8.3943794  21.9379716
  28.4556775   8.1784161  22.9767115  28.6560180   8.5523715  22.3176880
  26.5931454  -3.1341440  28.7990288  25.8027529  -3.3149980  29.1207624
  26.9892077  -3.9114488  28.7820582  26.5348331  -3.2753979  28.8442836
  31.9775141   4.5000990  26.5249734  31.3020142   4.2686222  27.0263121
  31.9867517   3.8922173  25.8991839  31.8793645   4.3759915  26.5065886
  29.1069285  -0.6581181  33.2813787  29.0428426   0.2028775  33.1533924
  29.2466472  -0.9749188  32.4809338  29.1184755  -0.5781015  33.1442000
  33.9791875   7.3566122  18.7559912  34.0611713   8.1633108  18.4321363
  34.4641617   7.3762081  19.4800685  34.0629033   7.4786785  18.8146810
  27.7888378   2.0350958  27.4229990  27.3650628   2.2355457  26.6869008
  27.6133234   1.1879806  27.5354290  27.6999259   1.9399740  27.3303680
  23.0770823   2.5303010  22.8557962  23.2335443   2.4649812  23.7113954
  23.4171417   3.3051562  22.6436642  23.1504058   2.6352208  22.9512556
  29.6149968   1.9060893  21.7251325  30.1565514   1.4031274  22.1889946
  29.9296527   1.8526088  20.9140811  29.7414365   1.8240314  21.6735138
  33.4867075   6.1163540  38.8378238  34.3001941   5.8448689  38.9983370
  33.3262042   5.8171080  38.0338434  33.5837024   6.0318466  38.7423644
  27.7836418   7.2978245  19.0091353  27.8529238   6.4392783  19.1484354
  28.5624873   7.5150125  18.6810378  27.9089268   7.2031109  18.9808511
  30.7639237  -3.2002802  31.7773626  30.9781207  -3.8391888  31.2236980
  30.1473137  -2.7556979  31.3481488  30.7044567  -3.2292659  31.6324057
  32.1743905   9.7215946  23.2227847  31.7823697   9.4182661  22.5050713
  32.3296978  10.5585036  23.0332801  32.1397495   9.7999783  23.0884344
  32.9278325  -1.5913737  32.7156933  32.1155007  -1.8987847  32.7970106
  33.3868260  -2.0714737  33.2799645  32.8758710  -1.7077245  32.8111527
  32.3383580   6.2865935  23.1633877  31.9798235   6.4580578  23.9397910
  31.8522291   6.7479140  22.6061876  32.2142277   6.3804906  23.1959146
  30.0231833  -0.1853666  37.4985635  30.4931464   0.4388451  37.8853509
  30.0693713  -0.8536690  38.0578850  30.0999709  -0.1918986  37.6385707
  33.4988319   7.1769831  34.1101078  34.1368040   6.6830026  33.7763534
  32.8562411   7.1047231  33.5253305  33.4982546   7.0928839  33.9743433
  35.2245320  -0.9741023  28.6766994  34.7972928  -1.0614675  27.9215093
  34.5871373  -0.8663248  29.2621838  35.0674927  -0.9708363  28.6512435
  33.5542576   7.8689639  30.7506435  34.3434954   7.5178704  30.8708517
  33.7286174   8.6826027  30.4883069  33.6962858   7.9375496  30.7294303
  23.2935886   1.2798365  27.8034224  22.4523893   1.1802239  28.0113118
  23.5025894   2.0493845  28.1548544  23.2000579   1.3790408  27.8861539
  20.7711453  -1.0982098  25.6318974  20.3768151  -1.0239087  24.8569084
  20.2151570  -0.7124152  26.1827336  20.6314266  -1.0300324  25.5986634
  27.1052551  -0.7920236  27.0531821  26.8015689  -1.3464248  27.6542229
  26.4031972  -0.6128026  26.5659856  26.9568761  -0.8475454  27.0701527
  25.1670902   6.4229485  31.7603919  25.0591257   6.4331547  32.6265977
  25.3766684   7.2484265  31.5708873  25.1821013   6.5470559  31.8608011
  23.1844694   3.6742127  29.2225857  22.5932628   4.3151625  29.1928872
  23.9465718   4.0979744  29.1957156  23.2092955   3.8317965  29.2141004
  25.2288667  -4.4989180  34.4565901  24.8374232  -5.1455833  34.8921679
  25.3974530  -3.9077745  35.0760157  25.1959577  -4.5074912  34.6128607
  39.3035116   3.5047897  30.2203135  39.3618240   3.9534545  30.9663111
  38.6701583   3.9146710  29.7833215  39.2186411   3.6321631  30.2655683
  32.9434211   9.1251439  26.6557881  32.7453899   9.6142253  25.9614093
  32.3221922   9.3292680  27.2342015  32.8221775   9.2267977  26.6381104
  27.0042189   0.8936335  20.9968125  27.7484234   1.2810612  21.2351075
  27.1502885   0.0493761  21.1608613  27.1352774   0.8266808  21.0562095
  29.9920065  -3.5338191  26.8962045  29.5180019  -4.0596429  27.4067356
  30.3638201  -4.0808718  26.3276906  29.9769954  -3.6922195  26.8877192
  36.2556795   1.5264184  28.3068825  36.0155018   0.6870600  28.3111252
  36.7348803   1.6064351  29.0309599  36.2908979   1.4145584  28.4143628
  38.2561982  -1.6934358  26.2598084  38.0171752  -1.7338524  25.4218869
  38.4195884  -0.8463206  26.3863806  38.2452286  -1.5742273  26.1551566
  34.8608013   2.6915591  32.1903130  35.5842211   2.2388117  32.0114149
  34.5957975   2.9720257  31.4075457  34.9289286   2.6666559  32.0481845
  23.7294881  -2.7124236  28.9256009  23.1047951  -2.7005844  28.3181961
  23.3940476  -2.2364060  29.5747249  23.5880373  -2.6405719  28.9312577
  20.4420556   5.3476225  30.3659773  19.9120481   4.6568663  30.4154748
  20.7145650   5.3386410  29.5372482  20.4045279   5.2443356  30.2507189
  31.4740647   5.9301927  19.0897456  32.1974846   6.3960040  18.9462029
  31.0341238   5.9975537  18.3395053  31.5156339   6.0085764  18.9582237
  30.6426802   2.7899469  30.3398145  30.0283795   2.2457519  30.6346780
  31.1594087   2.2763706  29.8603961  30.6282464   2.6335878  30.3122373
  29.8823099   3.8603739  28.0742443  29.4550707   3.2353458  27.6407879
  29.8748044   3.5778661  28.9001450  29.8182240   3.7256520  28.1322271
  22.9985626  -1.1031088  31.1430877  23.1579113  -1.8587764  31.5482599
  22.8178520  -0.5540148  31.7971615  22.9950985  -1.1337274  31.2993583
  28.2108809  -5.2627506  28.2884977  28.2351296  -5.7967394  27.5997757
  28.4620282  -5.7710197  28.9510568  28.2518728  -5.4166602  28.2849622
  15.7216399   2.0203989  27.7228121  15.6159848   1.9750833  26.8580205
  14.9716619   2.3657769  28.0042406  15.5952002   2.0644897  27.6365451
  26.6739744   3.0304052  35.7711016  25.8235375   3.1675766  35.9068661
  26.8367872   2.2967830  36.2158718  26.5723608   2.9418153  35.8566615
  25.9124494  -0.0196178  29.9664621  25.0816424   0.1477640  29.7599869
  25.8576012  -0.3960227  30.7513506  25.7813909  -0.0506447  30.0513149
  37.2943326   1.6542002  30.6933679  37.8861167   2.2939252  30.7251877
  37.7302321   0.9565038  30.9825746  37.4461758   1.6460352  30.7414512
  29.1236716   6.0759374  31.3191573  28.6161807   6.6295221  31.7632204
  28.8263363   6.1367664  30.5010348  29.0041601   6.1665685  31.2640030
  31.7344497   9.9922632  19.2495517  31.0173806   9.8183494  18.7842754
  32.3851234   9.7575204  18.7171003  31.7246347   9.9318424  19.1024735
  34.3192468  -1.1312780  22.9936822  33.6483658  -0.5883077  22.8649887
  35.0132218  -0.6617924  22.7518517  34.3221335  -0.9814508  22.9392350
  28.3679202  11.0083932  28.2248580  28.1444856  10.2502762  28.5932606
  27.8789045  11.0381954  27.5029020  28.2622651  10.9006157  28.1725321
  23.1804280  -2.0449376  23.9610042  22.4616269  -1.6285244  24.2282905
  23.5516643  -1.4795138  23.4101680  23.1296212  -1.9000095  23.9192849
  32.4803861  -1.4121527  29.8512037  32.4601788  -1.5938232  30.7046816
  32.5283062  -0.5409509  29.8271621  32.4838502  -1.3104989  29.9735332
  30.4250191   5.1765665  35.7760514  30.3846046   4.5315342  35.1905670
  31.2373509   5.1202282  36.0885926  30.5393345   5.0724631  35.7357463
  27.0157659  11.2284390  25.6785665  26.6018057  10.5658521  25.2889506
  27.7005033  11.3762249  25.1581359  27.0556030  11.1525049  25.5442162
  30.3822953  10.3874476  26.4309281  29.9839236  10.4976746  25.6630102
  29.7674172  10.5956542  27.0135841  30.2321842  10.4348044  26.4040581
  31.8308671  -3.0471872  22.7285171  31.6022364  -3.0239170  21.8863529
  32.0906747  -3.8714405  22.8480182  31.8354859  -3.1655792  22.6210369
  26.1127900  -1.1937399  32.3310271  25.6006803  -1.8016216  32.6895303
  25.9407396  -0.4780806  32.7984247  26.0117537  -1.1774100  32.4526495
  24.8853434  -4.5095326  24.0239367  25.3610800  -4.1478246  23.3889548
  24.3842033  -3.8538858  24.3039510  24.8818793  -4.3601137  23.9716108
  38.1164795   4.9626442  19.8152372  38.4998401   5.7117799  20.0450469
  37.3208909   5.2092262  19.5564361  38.0558578   5.1096136  19.8109945
  29.9896970  -3.2713154  34.7712527  30.5468400  -3.4999345  34.1390992
  29.6658035  -2.5107489  34.4947739  30.0243380  -3.1929318  34.6369024
  27.7080087  -0.1845501  35.7364534  28.4591414   0.1306176  36.0504088
  27.9002664  -0.3866330  34.9098456  27.8471501  -0.1678119  35.6607930
  32.2806230   0.6225567  26.6324536  32.7759895  -0.0951438  26.5928557
  31.4706005   0.3196365  26.5179023  32.2350123   0.4723213  26.6098262
  27.7264841   4.4723380  18.7821541  26.9176164   4.1490054  18.7354850
  28.2339750   3.7656602  18.7149790  27.6814508   4.3204697  18.7651835
  18.3555118   1.8995574  24.5068905  17.4900638   1.8881264  24.3951676
  18.4553934   1.7125796  25.3540044  18.2429285   1.8701635  24.6157850
  34.3458048   3.3729255  29.3201665  34.7713120   2.8503677  28.7672090
  33.9814968   3.9710092  28.7990288  34.3544651   3.3839482  29.1610675
  23.9812128  11.6693472  28.0799011  24.2958687  12.4829861  28.0876792
  24.3905542  11.2843691  28.7481170  24.0880226  11.7322175  28.1803102
  30.9336648   7.0863519  25.6502823  31.4047826   7.8003782  25.8192808
  31.2696826   6.4862269  26.1862692  31.0531763   7.1034983  25.7535199
  33.0213632   8.6964832  37.8294895  33.1310598   7.9073393  38.1851642
  33.3504529   8.6070768  37.0269233  33.0866038   8.5670685  37.7637285
  31.5710594   6.8781453  32.4130515  31.0231540   6.2539337  32.1450581
  32.0323623   7.0675725  31.6974595  31.5577804   6.8140503  32.2680946
  21.3225148   5.6166581  27.7277619  21.9270006   5.5762415  27.0991440
  21.1152461   6.4637733  27.7581675  21.3814046   5.7354583  27.6393736
  31.1368920   7.8832526  28.9439857  31.9567294   7.7395492  29.2056152
  30.8562998   8.5078725  29.4856294  31.2165664   7.9542878  29.0627796
  16.5576431   4.6001198  27.5976542  16.4600709   3.7897470  27.9066599
  17.3405300   4.5792991  27.2122810  16.6592567   4.4768288  27.5863405
  47.6082571  15.5397377  21.9082733  47.5776575  16.3942014  22.0801002
  48.2063920  15.2392670  22.4668876  47.6919729  15.6213874  22.0157535
  40.8082256  14.6273028  26.6635663  39.9520151  14.7881527  26.7144780
  40.8549909  13.7565092  26.6840724  40.6881367  14.5223830  26.6741729
  40.6448355  24.5861116  17.8558442  40.3099724  25.2638037  17.4202664
  41.1575226  24.1966427  17.2675314  40.6713936  24.6285694  17.7045233
  43.6534077  16.6865072  29.3067315  44.1990037  17.3650159  29.3661285
  43.5950953  16.5452533  28.4468896  43.7249991  16.7657074  29.1879375
  45.4299145  18.1149679  20.1801043  45.3138671  18.8657366  20.6093181
  46.2255032  17.8573633  20.4297130  45.5303735  18.1884526  20.2805134
  29.9673196  20.1974425  24.3188001  29.7323380  19.3642077  24.2120270
  30.1058837  20.4779091  23.5049202  29.9528858  20.1157928  24.1830356
  32.2663283  12.3660156  27.2172309  31.6468315  11.7752803  27.0482323
  32.1647147  12.9571591  26.5836632  32.1600959  12.3664238  27.0977298
  37.3129471  22.1043703  21.4670385  37.6345312  22.6448910  20.8631693
  37.9601567  21.5340474  21.5992675  37.4555526  22.1002878  21.3977420
  39.3631179  14.1059697  21.5504772  40.0611344  14.2847825  22.0426235
  39.6783511  13.5830037  20.9275161  39.5126516  14.0553470  21.5306782
  31.9932416  15.9112437  29.4615878  31.8691113  16.4974883  30.0965697
  32.6450701  15.4172633  29.7628153  32.0706066  15.9251242  29.6001807
  39.5519114  20.4930142  21.5384563  39.9912750  19.8847243  21.9839336
  39.4023777  20.1137516  20.7670028  39.5940580  20.3468614  21.4903731
  37.0190757  19.0874154  28.7403389  37.6639760  18.5946597  28.4214337
  37.2592534  19.2298941  29.5669467  37.1501342  19.0351597  28.8152922
  39.5576849  21.9329060  28.3910281  39.8400092  21.1380466  28.1697037
  40.2863009  22.4109648  28.4115342  39.7066412  21.8863657  28.3613296
  37.5358043   9.4752094  25.6326046  37.2061373   9.9263238  24.9629745
  36.8603044   9.3968257  26.1799053  37.3868479   9.5303229  25.6149270
  43.1528451  18.8457324  18.4915333  43.0679746  19.7018290  18.6364901
  43.6412834  18.5701648  19.1597492  43.2117348  18.9314645  18.6117414
  44.7434450   5.4637617  23.8775657  44.4287891   6.1541096  24.3096079
  44.2261392   5.4082399  23.1761158  44.6198921   5.5572506  23.8372606
  44.0846884  15.4642118  19.9913068  43.5558356  15.6801751  20.6510374
  44.6071904  16.1578256  19.9114037  44.0835337  15.5985255  20.0768667
  49.5394937  21.0388422  25.3646112  48.7092640  21.2499066  25.5279529
  49.4904189  20.2125477  25.0888396  49.4101672  20.9478029  25.3483478
  35.9746492  19.3605335  18.7920536  35.3903707  19.8655366  19.1986400
  35.5716587  19.1347722  18.0517128  35.8285796  19.4013583  18.7425561
  31.5290521  25.0760096  25.5944207  31.0458099  25.8010585  25.5703791
  32.3413839  25.3736226  25.7054365  31.5781268  25.2262450  25.6071486
  40.4323706  15.6070987  17.2689456  40.6719710  15.8148971  16.4564799
  40.7539547  14.8028495  17.3778401  40.5160864  15.5185088  17.1650009
  35.7413997   7.5364383  21.1148994  36.4959965   7.9042700  20.8766044
  35.5641531   7.9103937  21.8828174  35.8268475   7.6462570  21.1933883
  49.0348895  13.6858823  29.1596533  48.1977316  13.7561010  29.3944128
  49.0037126  13.6883318  28.2870836  48.9067178  13.6969050  29.0656081
  35.4313624  15.8291859  34.8744902  35.6034128  15.7197753  35.7230184
  35.9682982  16.4746264  34.6376094  35.5358628  15.9083860  34.9649999
  34.0971061   9.9434702  17.8127107  33.9146634  10.1606582  16.9868100
  34.9596674  10.0573714  17.8685722  34.1975651   9.9924599  17.6981594
  33.7085493  21.7822624  25.2550095  34.5474393  22.0145557  25.3023857
  33.7397262  20.9126935  25.1857130  33.8367211  21.6879570  25.2514740
  39.7770780   6.9461112  20.8476131  40.5056941   6.7677067  20.4014287
  39.8665673   7.7879192  21.0583309  39.8977442   7.0444991  20.8129649
  43.7579081  17.8814500  24.7508425  44.5136596  18.3146014  24.7897334
  43.8641406  17.2319269  25.3243061  43.8849252  17.8491983  24.8406451
  46.7959252  21.7087777  25.5010828  46.3594484  21.7124519  26.2569799
  46.4622168  22.3893276  25.0690405  46.6821872  21.8100233  25.5491660
  29.7375341  18.4223790  29.7097822  29.4713757  17.6062906  29.8688812
  29.7513905  18.4676945  28.8393338  29.7000064  18.3080695  29.6051304
  46.7156735   8.7501605  27.7440256  47.3582644   8.8199709  28.3302171
  46.9679756   8.0830828  27.2419798  46.8478867   8.6627953  27.7567535
  33.6433088  13.2208874  16.3249580  32.9291265  12.9347054  16.7372013
  34.1277057  13.5605500  16.9655968  33.6092452  13.2290524  16.4805215
  34.4873948  11.9602168  32.3564830  33.7945744  11.4899148  32.6025561
  35.1034275  11.7340473  32.9306537  34.4758478  11.8569300  32.4773982
  49.9303598  18.4268697  24.3930465  50.5920033  17.8659365  24.2926374
  49.2895010  17.9320727  24.7183156  49.9332466  18.2705106  24.4262805
  40.8180406  21.7238828  16.7011388  41.2331555  21.3923852  16.0095884
  39.9872336  21.4907730  16.5731525  40.7568415  21.6410084  16.5802236
  30.1468755  19.2082569  26.9909566  29.9644328  19.1829455  26.1381859
  30.8818424  19.6781507  27.0298475  30.2282819  19.2743931  26.8707485
  46.2168429  19.4434079  24.1342454  46.4524018  19.5879278  23.3069305
  46.3657993  20.2076487  24.5273968  46.2734232  19.5773134  24.0706058
  48.0458886  18.2835745  21.9712058  48.3767103  18.8163385  21.3652153
  48.6191974  18.3374633  22.6274009  48.1792565  18.3705314  21.9789839
  43.2590775  16.1300648  22.6535638  43.3537629  16.8689942  23.1075263
  42.6349619  15.7018123  23.0870202  43.1799805  16.1761968  22.7843785
  41.5143249  19.3086860  33.3025919  42.0882110  18.6714105  33.4574483
  41.4358053  19.3090943  32.4335576  41.5876484  19.2151972  33.1972330
  30.1139665  16.0876070  27.1408633  30.6913168  15.9512521  27.7800878
  29.4153727  15.6311854  27.3954217  30.0960687  15.9998336  27.2730923
  43.5113796  17.9749388  15.8872590  43.4293959  18.0451575  16.7527577
  44.1493517  18.5379131  15.6956330  43.5933634  18.0688359  15.9862539
  36.8706967  17.7410125  25.3547116  36.6126212  16.9081860  25.3278416
  36.9255450  17.9667738  24.5139617  36.8406745  17.6507897  25.2267253
  41.9508018   9.8438576  25.4551209  41.2464344   9.3547762  25.6135128
  41.9992992   9.8561051  24.5839653  41.8538069   9.7728224  25.3490549
  35.8441680  15.2947888  25.8412011  35.2691271  15.4540056  26.4775972
  35.4677356  14.6583297  25.3780461  35.7044492  15.2245701  25.8666569
  39.5114968  13.7671237  30.7004389  39.1229401  13.3425455  30.0456581
  38.8469667  14.0153387  31.2081416  39.3561896  13.7409958  30.6792257
  49.1538237  13.5246242  23.4752219  48.8974802  12.7126183  23.2850102
  49.9967551  13.5323809  23.2482407  49.2404263  13.4058239  23.4137036
  25.5898498  14.9387963  23.8556452  25.6758750  14.5619831  24.6369981
  26.2174296  14.5648408  23.3776410  25.6955049  14.8273445  23.9001929
  43.3341330   7.4645866  28.2128374  43.7151842   6.7824037  28.5996248
  42.5304614   7.1755468  28.0304038  43.2717792   7.3212915  28.2432429
  40.6153907  17.9969842  18.8981196  41.4294545  18.2884735  18.7863968
  40.5513048  17.3429704  18.3239489  40.7256646  17.9435037  18.7970034
  46.8363397  20.6795838  33.3110772  46.6002034  19.8483903  33.1922833
  47.4806626  20.6281445  33.8965616  46.8958067  20.5493526  33.3796666
  36.4861815  21.4691359  24.0253508  37.1235762  21.2303107  24.5705302
  36.9116886  21.6728518  23.2906669  36.6437981  21.4642369  23.9970666
  31.1774457  23.7079696  27.9087812  31.2178602  23.9794547  27.0807592
  31.7368981  24.2321604  28.3245600  31.2657803  23.8255451  27.8479700
  37.1264630  16.6893649  18.3628398  37.5109783  16.4701356  19.1144943
  36.8776250  17.5156594  18.4929474  37.1466702  16.7791795  18.4929474
  37.2933170   9.9700064  38.0790982  36.9786611  10.7399627  37.8160545
  36.9723103   9.4070320  37.4943209  37.1992089  10.0010333  37.9532332
  47.8599817  20.4640287  29.3739066  47.5545634  21.1968344  29.7352382
  47.1406033  20.0578216  29.0931853  47.7087160  20.5122020  29.3852204
  38.8683287  21.9463782  25.7047295  38.9422295  21.7838954  26.5589145
  39.6852793  22.1353971  25.4607776  38.9999645  21.9500524  25.7945320
  53.5601609  17.1033287  28.7007411  53.4926110  17.1229247  27.8309997
  53.5457272  17.9463615  28.9263081  53.5480366  17.2307022  28.6059888
  32.6289043  22.2921645  22.7341738  31.8027161  22.5383382  22.6076017
  32.6901035  22.2133726  23.6003796  32.5163210  22.3166594  22.8430683
  34.8465067   8.3590586  23.6937178  33.9787493   8.4313185  23.7594788
  35.1340271   9.1612665  23.8825153  34.7604815   8.4884733  23.7311945
  43.9697956   8.5068445  32.0248500  44.7151548   8.3178256  31.6111926
  43.5535261   9.0326683  31.4662356  44.0182930   8.5570591  31.8813073
  37.4087872  24.9098525  20.4360768  37.6986171  24.5187506  19.7119995
  38.1391353  25.0915230  20.8766043  37.5594757  24.8792339  20.3943575
  51.3460227  15.8777674  26.9754005  51.8968148  15.2445743  27.2151097
  51.3304342  16.4093066  27.6669509  51.4245423  15.8626622  27.1132863
  37.9982618  19.7116271  31.5213899  37.4994311  20.4232039  31.5998787
  38.8082842  20.0316937  31.4832061  38.0438724  19.8643119  31.5270467
  34.2610735  18.9739224  25.7676619  33.9723984  18.3476695  26.3022347
  35.1294083  18.9159511  25.8341300  34.3470987  18.8726768  25.8567574
  45.0488633  14.1174007  26.0858601  44.7053399  13.3964342  26.4365851
  45.1481676  13.9087858  25.2436960  45.0130676  13.9798211  26.0130281
  34.4643009  20.6134475  21.6918984  35.2188977  20.9947514  21.9054447
  33.8713621  21.0645619  22.1465681  34.4879722  20.7363302  21.7901863
  45.5101662  20.5799711  21.6282589  46.0759695  21.2392921  21.5441132
  44.8629566  20.9249409  22.0998992  45.4980419  20.7281653  21.6855346
  36.9249676  12.5697315  36.8176197  36.1149451  12.8755095  36.7066039
  37.4024362  13.2902898  36.9328781  36.8753154  12.7211916  36.8183268
  35.7841235  21.7843036  27.0659100  35.2621989  21.9243328  27.7510965
  36.1715255  21.0253701  27.2561217  35.7644936  21.6928560  27.1960176
  32.7732419  11.8348845  21.1354055  32.4857215  11.4650115  20.3986002
  33.4602887  12.3043700  20.8737759  32.8321317  11.8495814  20.9869130
  41.9808240  23.5238496  21.0519669  41.7394916  22.7906356  20.6446734
  42.1609573  24.0725353  20.3986002  41.9715864  23.4960887  20.8949892
  37.2107561  18.8147055  22.4640591  37.0150343  19.4221790  21.8700894
  37.4341906  18.1214999  21.9832265  37.2142202  18.8024581  22.3056672
  35.6086091  15.7001793  22.5821459  36.3308743  15.8642951  22.1225265
  35.1294084  16.4211458  22.4760799  35.6449821  15.8300023  22.4987073
  43.5679598  12.0365592  27.9618144  42.7290699  12.0626871  27.7256407
  43.6383966  12.6836327  28.5423491  43.4547992  12.1361718  28.0127261
  42.0148877   8.9350969  22.6945760  42.7175229   8.7358717  22.2165718
  41.7493065   8.1626911  23.0014604  42.0795509   8.7913935  22.6691202
  47.4437122  17.2433579  25.2479386  47.3571097  17.3989005  26.1014165
  46.9887602  17.8871654  24.8738791  47.3640379  17.3609334  25.3186493
  30.3460614  12.6130058  21.9839336  30.4476750  13.4156219  22.3120311
  31.1416501  12.4117393  21.6862416  30.4788519  12.7015956  21.9874691
  36.7777433  10.1986254  31.7476641  36.5860630  10.2141389  32.5976064
  37.6276029  10.3949929  31.7243296  36.8753155  10.2300605  31.8699935
  31.1624346  12.7277236  29.7260457  31.0209838  11.8761176  29.8504965
  31.4464909  12.7705896  28.9022663  31.1832192  12.6076986  29.6228081
  41.3162938  14.5644326  23.8704945  41.0697653  14.4840077  24.7041734
  41.6448061  13.7797794  23.6767473  41.3284182  14.4370591  23.9652469
  45.2110987  21.2727685  27.6591727  45.0725346  21.9708731  28.1640469
  44.4310985  21.1176342  27.3027908  45.0754214  21.3527852  27.6818001
  43.5489072  17.5724061  33.9114108  43.5437111  16.7003877  33.9156535
  44.2550066  17.7712230  33.4383564  43.6534076  17.4727935  33.8421144
  37.2759966  17.3001044  33.2827929  37.4203341  17.8802253  32.6471039
  37.6235614  17.6777341  33.9877783  37.3487427  17.4421749  33.2926923
  39.4479883  16.4991213  31.0653060  38.7003197  16.6922227  30.6601338
  39.6021408  15.6736432  30.8277181  39.3602311  16.4056324  30.9698466
  46.7064360  20.6305939  18.4208226  46.3271169  19.8443077  18.4137515
  46.0430605  21.1792796  18.2779870  46.5522835  20.5950763  18.3989023
  39.6881660  10.3941764  31.9548464  40.1454274  11.1265738  32.0821256
  39.7637989   9.9708229  32.7135720  39.7672630  10.4399002  32.0849540
  31.9314651  10.6407583  33.0437908  31.3956841  10.0287941  33.3598675
  31.9932416  11.2155719  33.6971574  31.8610284  10.6354511  33.1873334
  44.1608986   3.5731639  25.8242307  44.2792554   4.0308102  25.0909609
  43.9871162   2.7676900  25.5378524  44.1528157   3.5225411  25.6743240
  39.5311268  24.1819458  22.2597052  40.2961159  23.9129102  21.9379716
  39.4289358  23.6969468  22.9767115  39.6292764  24.0709023  22.3176880
  37.5664038  12.3843868  28.7990288  36.7760113  12.2035328  29.1207624
  37.9624661  11.6070820  28.7820582  37.5080914  12.2431328  28.8442836
  42.0529929  21.2131642  14.2397001  42.8202914  21.2731767  13.8302853
  41.6061238  20.6412083  13.7553320  42.1003356  21.1368218  14.1074712
  42.9507724  20.0186298  26.5249734  42.2752726  19.7871530  27.0263121
  42.9600100  19.4107481  25.8991839  42.8526229  19.8945223  26.5065886
  40.0801868  14.8604127  33.2813787  40.0161009  15.7214083  33.1533924
  40.2199056  14.5436120  32.4809338  40.0917338  14.9404293  33.1442000
  44.9524459  22.8751430  18.7559912  45.0344296  23.6818416  18.4321363
  45.4374201  22.8947389  19.4800685  45.0361617  22.9972092  18.8146810
  38.7620962  17.5536266  27.4229990  38.3383211  17.7540765  26.6869008
  38.5865817  16.7065114  27.5354290  38.6731843  17.4585047  27.3303680
  34.0503407  18.0488317  22.8557962  34.2068026  17.9835120  23.7113954
  34.3904000  18.8236870  22.6436642  34.1236642  18.1537516  22.9512556
  40.5882552  17.4246201  21.7251325  41.1298097  16.9216582  22.1889946
  40.9029111  17.3711396  20.9140811  40.7146949  17.3425622  21.6735138
  38.7569001  22.8163553  19.0091353  38.8261822  21.9578091  19.1484354
  39.5357456  23.0335433  18.6810378  38.8821851  22.7216417  18.9808511
  41.7371821  12.3182506  31.7773626  41.9513791  11.6793420  31.2236980
  41.1205720  12.7628329  31.3481488  41.6777150  12.2892649  31.6324057
  43.1476489  25.2401254  23.2227847  42.7556281  24.9367969  22.5050713
  43.3029561  26.0770344  23.0332801  43.1130079  25.3185091  23.0884344
  30.6237669  15.2323268  23.1718729  31.0036633  15.6507813  22.5078997
  30.0493033  15.8136724  23.4787573  30.5948993  15.3801127  23.1195470
  43.9010909  13.9271571  32.7156933  43.0887591  13.6197461  32.7970106
  44.3600844  13.4470571  33.2799645  43.8491294  13.8108063  32.8111527
  43.3116164  21.8051243  23.1633877  42.9530818  21.9765886  23.9397910
  42.8254874  22.2664448  22.6061876  43.1874861  21.8990214  23.1959146
  41.1286550   5.4282441  26.7660969  40.2580108   5.4021162  26.7194278
  41.3826891   5.2559633  25.9486814  41.0380110   5.3992585  26.6381105
  38.1004529  17.4850408  15.7034112  38.3897054  18.2615291  15.9777686
  38.1876328  16.9739140  16.4048611  38.1558785  17.5242326  15.8476610
  40.9964417  15.3331642  37.4985635  41.4664048  15.9573759  37.8853509
  41.0426297  14.6648618  38.0578850  41.0732292  15.3266322  37.6385707
  38.1535690   7.4388670  28.2234439  37.6374179   6.7468861  28.3486018
  37.5929619   8.1059447  28.1697038  37.9942203   7.4351927  28.2340505
  40.2227924   7.9781630  30.0527292  39.8359677   8.0030661  30.8340822
  39.7360861   7.4123308  29.6001808  40.0940433   7.8977380  30.1015195
  46.1977903  14.5444285  28.6766994  45.7705511  14.4570633  27.9215093
  45.5603956  14.6522060  29.2621838  46.0407510  14.5476944  28.6512435
  39.8885065   4.8648615  32.3437552  40.5178183   5.4008915  32.0658622
  40.0570928   4.7725974  33.1951117  40.0062860   4.9309977  32.4286080
  39.6898980   9.6519810  34.6163963  40.5172410   9.3804959  34.6722578
  39.7106826  10.4480652  34.9727781  39.8151830   9.7299564  34.6779146
  44.5275160  23.3874947  30.7506435  45.3167538  23.0364012  30.8708517
  44.7018757  24.2011335  30.4883069  44.6695441  23.4560804  30.7294303
  34.2668470  16.7983673  27.8034224  33.4256477  16.6987547  28.0113118
  34.4758478  17.5679153  28.1548544  34.1733163  16.8975716  27.8861539
  31.7444037  14.4203210  25.6318974  31.3500735  14.4946221  24.8569084
  31.1884154  14.8061156  26.1827336  31.6046849  14.4884984  25.5986634
  43.3808984   7.3984504  25.3122853  43.5858577   7.3306811  26.1579851
  43.0535408   8.2043325  25.2444031  43.3624232   7.5070444  25.4282509
  38.0785135  14.7265072  27.0531821  37.7748272  14.1721060  27.6542229
  37.3764556  14.9057282  26.5659856  37.9301345  14.6709854  27.0701527
  37.1351232  12.0365592  21.6176523  37.4110966  11.3184504  21.2054091
  37.7349901  12.6350512  21.4097629  37.2644497  12.0185962  21.5257284
  46.6342672   7.9516268  24.7925619  46.0216985   8.4386670  25.1779351
  46.7306846   7.2759759  25.3363270  46.5580569   7.9234577  24.9304477
  40.6361753   9.7079109  19.8923118  41.0905499   9.8789669  20.6170963
  41.1101798   9.0947220  19.4920894  40.7730073   9.6429994  19.9396880
  34.1577278  19.1927435  29.2225857  33.5665211  19.8336933  29.1928872
  34.9198301  19.6165052  29.1957156  34.1825539  19.3503273  29.2141004
  34.5537901  10.3529433  29.8893874  35.0139382  10.4268362  30.6268998
  34.5994007  11.1510687  29.5393696  34.6288456  10.4823580  29.9466631
  36.2021250  11.0196128  34.4565901  35.8106816  10.3729475  34.8921679
  36.3707113  11.6107563  35.0760157  36.1692161  11.0110395  34.6128607
  50.2767699  19.0233205  30.2203135  50.3350823  19.4719853  30.9663111
  49.6434167  19.4332017  29.7833215  50.1918995  19.1506939  30.2655683
  43.9166794  24.6436747  26.6557881  43.7186483  25.1327561  25.9614093
  43.2954505  24.8477988  27.2342015  43.7954359  24.7453285  26.6381104
  37.9774773  16.4121643  20.9968125  38.7216817  16.7995920  21.2351075
  38.1235469  15.5679069  21.1608613  38.1085358  16.3452116  21.0562095
  39.8954348   8.2071902  26.0299987  39.0490393   8.3794710  25.9041337
  39.8925480   7.4021246  26.3665815  39.7701498   8.1132931  26.0611114
  40.9652648  11.9847117  26.8962045  40.4912603  11.4588879  27.4067356
  41.3370784  11.4376590  26.3276906  40.9502537  11.8263113  26.8877192
  47.2289379  17.0449492  28.3068825  46.9887602  16.2055907  28.3111252
  47.7081386  17.1249659  29.0309599  47.2641563  16.9330892  28.4143628
  42.8936148  12.8783671  19.9587799  42.3659167  12.9612415  19.2693507
  43.3531856  13.6201543  19.9552443  42.8837998  13.0004334  19.8562494
  49.2294566  13.8250950  26.2598084  48.9904336  13.7846784  25.4218869
  49.3928467  14.6722102  26.3863806  49.2184869  13.9443035  26.1551566
  45.8340596  18.2100899  32.1903130  46.5574795  17.7573425  32.0114149
  45.5690558  18.4905565  31.4075457  45.9021869  18.1851867  32.0481845
  34.7027464  12.8061072  28.9256009  34.0780535  12.8179464  28.3181961
  34.3673059  13.2821247  29.5747249  34.5612956  12.8779589  28.9312577
  34.8869213  11.1486191  14.9828694  34.5382018  11.8005916  15.4460243
  34.4065659  11.1343304  14.2552565  34.7639457  11.2429244  14.9439785
  42.4473231  21.4487235  19.0897456  43.1707429  21.9145348  18.9462029
  42.0073822  21.5160844  18.3395053  42.4888923  21.5271072  18.9582237
  41.6159386  18.3084777  30.3398145  41.0016379  17.7642827  30.6346780
  42.1326671  17.7949014  29.8603961  41.6015048  18.1521186  30.3122373
  40.8555683  19.3789047  28.0742443  40.4283291  18.7538766  27.6407879
  40.8480627  19.0963969  28.9001450  40.7914824  19.2441828  28.1322271
  33.9718210  14.4154220  31.1430877  34.1311697  13.6597544  31.5482599
  33.7911103  14.9645160  31.7971615  33.9683569  14.3848034  31.2993583
  41.9138513   6.5815456  31.6981667  41.4179074   6.7779130  31.0073233
  42.6707575   6.9808124  31.5270468  41.9525338   6.6693190  31.5701803
  39.1841392  10.2557802  28.2884977  39.2083880   9.7217914  27.5997757
  39.4352866   9.7475110  28.9510568  39.2251311  10.1018706  28.2849622
  26.6948982  17.5389297  27.7228121  26.5892431  17.4936141  26.8580205
  25.9449202  17.8843077  28.0042406  26.5684585  17.5830205  27.6365451
  35.4642715   8.9828620  27.6690722  35.5041086   9.4837826  28.3825429
  34.6392379   9.0739014  27.3996645  35.3482241   9.0710436  27.7341260
  37.6472328  18.5489360  35.7711016  36.7967958  18.6861074  35.9068661
  37.8100455  17.8153138  36.2158718  37.5456191  18.4603461  35.8566615
  36.8857078  15.4989130  29.9664621  36.0549008  15.6662948  29.7599869
  36.8308595  15.1225081  30.7513506  36.7546493  15.4678861  30.0513149
  34.6940861   8.9898023  35.6021031  35.3193565   8.4460155  35.8750464
  34.2391341   8.5092940  35.0328822  34.7189122   8.8387504  35.5582625
  35.2593122  13.7744721  20.4954738  35.3996083  14.2717185  21.1983380
  35.7575655  13.0731016  20.6368952  35.3534203  13.7446700  20.6206317
  35.2893344  14.6411832  17.8247315  35.9238424  15.2372257  17.7596777
  35.3718955  14.3415290  18.6393185  35.3949895  14.6852740  17.9350402
  48.2675910  17.1727310  30.6933679  48.8593750  17.8124560  30.7251877
  48.7034905  16.4750346  30.9825746  48.4194341  17.1645660  30.7414512
  36.8672327  10.5725808  17.7992757  37.1888168  10.0928890  17.1452019
  37.1299271  11.3825454  17.6083569  36.9538353  10.6215706  17.6748249
  42.2631482   9.9598002  30.1616236  42.6886554   9.5070528  29.5499763
  41.6488475   9.4058072  30.4381024  42.2360128   9.8111978  30.1121261
  31.7946332  16.8379673  21.0936861  32.3038562  17.4344181  21.4748167
  32.2680604  16.5705647  20.4113281  31.9389708  16.8865488  21.0491384
  42.7077080  25.5107940  19.2495517  41.9906390  25.3368802  18.7842754
  43.3583818  25.2760512  18.7171003  42.6978931  25.4503732  19.1024735
  45.2925051  14.3872528  22.9936822  44.6216241  14.9302231  22.8649887
  45.9864802  14.8567384  22.7518517  45.2953919  14.5370799  22.9392350
  39.3411785  26.5269240  28.2248580  39.1177440  25.7688070  28.5932606
  38.8521628  26.5567261  27.5029020  39.2355234  26.4191465  28.1725321
  34.1536864  13.4735932  23.9610042  33.4348853  13.8900064  24.2282905
  34.5249226  14.0390170  23.4101680  34.1028796  13.6185213  23.9192849
  43.4536445  14.1063780  29.8512037  43.4334372  13.9247076  30.7046816
  43.5015645  14.9775799  29.8271621  43.4571086  14.2080319  29.9735332
  41.3555536  25.9059784  26.4309281  40.9571819  26.0162054  25.6630102
  40.7406756  26.1141850  27.0135841  41.2054426  25.9533352  26.4040581
  39.9283438  12.5133931  19.2983421  39.3348278  12.8350928  18.7467988
  39.9658716  11.6675027  19.0904527  39.8457827  12.4358260  19.1866192
  46.8877239   5.9646824  26.8311508  46.3808104   5.2575963  26.7632685
  47.6844673   5.6340013  26.9612584  46.9304478   5.8119975  26.8410502
  42.8041255  12.4713436  22.7285171  42.5754948  12.4946137  21.8863529
  43.0639331  11.6470903  22.8480182  42.8087443  12.3529516  22.6210369
  37.0860483  14.3247909  32.3310271  36.5739386  13.7169092  32.6895303
  36.9139979  15.0404502  32.7984247  36.9850120  14.3411208  32.4526495
  31.9326198  12.7685484  34.9812633  31.7628788  13.4286859  34.4360840
  31.4892148  12.9792046  35.7025122  31.8425532  12.8971466  35.0074263
  35.8586017  11.0089982  24.0239367  36.3343384  11.3707062  23.3889548
  35.3574617  11.6646450  24.3039510  35.8551376  11.1584171  23.9716108
  49.0897379  20.4811750  19.8152372  49.4730985  21.2303107  20.0450469
  48.2941492  20.7277570  19.5564361  49.0291161  20.6281444  19.8109945
  40.9629554  12.2472154  34.7712527  41.5200984  12.0185963  34.1390992
  40.6390619  13.0077819  34.4947739  40.9975964  12.3255990  34.6369024
  38.6812671  15.3339807  35.7364534  39.4323998  15.6491484  36.0504088
  38.8735247  15.1318978  34.9098456  38.8204085  15.3507189  35.6607930
  37.9012670  13.1531182  17.3912751  38.2811635  13.1710811  16.6063866
  37.1605267  13.5985171  17.2703598  37.8481508  13.2212957  17.2576319
  45.5297961  11.4613373  22.9788330  45.5292187  11.3062030  23.8372606
  45.3254141  12.3076360  22.9229715  45.4997739  11.5633994  23.0976269
  27.5915232  14.8853158  27.3947146  27.4136993  14.4329767  28.1202062
  27.3034254  15.6879319  27.5785624  27.5228185  14.9375716  27.5290649
  43.2538813  16.1410875  26.6324536  43.7492478  15.4233870  26.5928557
  42.4438589  15.8381673  26.5179023  43.2082706  15.9908521  26.6098262
  38.6997425  19.9908688  18.7821541  37.8908747  19.6675362  18.7354850
  39.2072333  19.2841910  18.7149790  38.6547091  19.8390005  18.7651835
  29.3287702  17.4180881  24.5068905  28.4633221  17.4066572  24.3951676
  29.4286518  17.2311104  25.3540044  29.2161869  17.3886943  24.6157850
  45.3190632  18.8914563  29.3201665  45.7445703  18.3688984  28.7672090
  44.9547552  19.4895400  28.7990288  45.3277235  18.9024790  29.1610675
  41.9069231  22.6048827  25.6502823  42.3780410  23.3189089  25.8192808
  42.2429410  22.0047577  26.1862692  42.0264346  22.6220291  25.7535199
  38.8238726   7.3776297  32.6060917  38.9566632   6.5807291  32.9341893
  39.2083879   7.9042700  33.1859193  38.8995055   7.3376214  32.7404420
  41.8971082   4.3006624  29.2042011  41.0917045   4.1904353  29.5209849
  41.7677817   4.4019079  28.3471877  41.7591214   4.2990294  29.1250051
  45.3537042  10.4652115  29.7981708  44.7700031  10.9661322  29.3859275
  45.6741336   9.9581672  29.1646031  45.3150217  10.4643950  29.6440215
  37.8931841   9.3792710  20.0740382  38.7147536   9.5491023  19.8322077
  37.4301492   9.5339971  19.3506680  37.9463003   9.4274443  19.9312027
  36.4827173   7.3735472  30.8538811  37.0271586   7.0326599  31.4443153
  36.5364109   8.2320934  30.9960096  36.5716293   7.4490732  30.9620685
  32.2957732  21.1351889  27.7277619  32.9002589  21.0947723  27.0991440
  32.0885044  21.9823041  27.7581675  32.3546629  21.2539891  27.6393736
  42.1101504  23.4017834  28.9439857  42.9299878  23.2580800  29.2056152
  41.8295582  24.0264033  29.4856294  42.1898247  23.4728186  29.0627796
  27.5309014  20.1186506  27.5976542  27.4333292  19.3082778  27.9066599
  28.3137884  20.0978299  27.2122810  27.6325151  19.9953596  27.5863405
  58.5815154  31.0582685  21.9082733  58.5509159  31.9127322  22.0801002
  59.1796503  30.7577978  22.4668876  58.6652312  31.1399182  22.0157535
  51.7814839  30.1458336  26.6635663  50.9252735  30.3066835  26.7144780
  51.8282493  29.2750400  26.6840724  51.6613951  30.0409138  26.6741729
  51.6180939  40.1046424  17.8558442  51.2832307  40.7823345  17.4202664
  52.1307809  39.7151735  17.2675314  51.6446520  40.1471002  17.7045233
  54.6266660  32.2050380  29.3067315  55.1722620  32.8835467  29.3661285
  54.5683537  32.0637841  28.4468896  54.6982575  32.2842382  29.1879375
  56.4031729  33.6334987  20.1801043  56.2871255  34.3842674  20.6093181
  57.1987616  33.3758941  20.4297130  56.5036318  33.7069834  20.2805134
  40.9405779  35.7159733  24.3188001  40.7055964  34.8827385  24.2120270
  41.0791420  35.9964399  23.5049202  40.9261442  35.6343236  24.1830356
  43.2395867  27.8845464  27.2172309  42.6200898  27.2938111  27.0482323
  43.1379730  28.4756899  26.5836632  43.1333542  27.8849546  27.0977298
  48.2862054  37.6229010  21.4670385  48.6077896  38.1634218  20.8631693
  48.9334151  37.0525782  21.5992675  48.4288110  37.6188186  21.3977420
  50.3363762  29.6245005  21.5504772  51.0343927  29.8033133  22.0426235
  50.6516095  29.1015345  20.9275161  50.4859100  29.5738778  21.5306782
  50.5251698  36.0115450  21.5384563  50.9645333  35.4032551  21.9839336
  50.3756361  35.6322824  20.7670028  50.5673164  35.8653922  21.4903731
  48.5090626  24.9937402  25.6326046  48.1793956  25.4448546  24.9629745
  47.8335628  24.9153565  26.1799053  48.3601062  25.0488537  25.6149270
  54.1261034  34.3642632  18.4915333  54.0412330  35.2203598  18.6364901
  54.6145418  34.0886956  19.1597492  54.1849932  34.4499953  18.6117414
  55.7167034  20.9822925  23.8775657  55.4020475  21.6726404  24.3096079
  55.1993976  20.9267707  23.1761158  55.5931504  21.0757814  23.8372606
  55.0579468  30.9827426  19.9913068  54.5290939  31.1987059  20.6510374
  55.5804488  31.6763564  19.9114037  55.0567921  31.1170563  20.0768667
  60.5127521  36.5573730  25.3646112  59.6825224  36.7684374  25.5279529
  60.4636773  35.7310785  25.0888396  60.3834256  36.4663337  25.3483478
  46.9479075  34.8790643  18.7920536  46.3636291  35.3840674  19.1986400
  46.5449171  34.6533030  18.0517128  46.8018379  34.9198891  18.7425561
  51.4056290  31.1256295  17.2689456  51.6452294  31.3334278  16.4564799
  51.7272131  30.3213803  17.3778401  51.4893448  31.0370396  17.1650009
  46.7146580  23.0549690  21.1148994  47.4692548  23.4228008  20.8766044
  46.5374115  23.4289245  21.8828174  46.8001059  23.1647878  21.1933883
  60.0081479  29.2044131  29.1596533  59.1709900  29.2746318  29.3944128
  59.9769710  29.2068626  28.2870836  59.8799761  29.2154358  29.0656081
  45.0703645  25.4620009  17.8127107  44.8879218  25.6791890  16.9868100
  45.9329258  25.5759022  17.8685722  45.1708234  25.5109907  17.6981594
  50.7503364  22.4646420  20.8476131  51.4789524  22.2862375  20.4014287
  50.8398257  23.3064500  21.0583309  50.8710026  22.5630299  20.8129649
  54.7311665  33.3999807  24.7508425  55.4869180  33.8331322  24.7897334
  54.8373989  32.7504577  25.3243061  54.8581835  33.3677291  24.8406451
  57.7691836  37.2273085  25.5010828  57.3327068  37.2309827  26.2569799
  57.4354751  37.9078584  25.0690405  57.6554456  37.3285541  25.5491660
  57.6889319  24.2686913  27.7440256  58.3315227  24.3385017  28.3302171
  57.9412339  23.6016135  27.2419798  57.8211451  24.1813261  27.7567535
  44.6165672  28.7394182  16.3249580  43.9023849  28.4532362  16.7372013
  45.1009641  29.0790808  16.9655968  44.5825035  28.7475832  16.4805215
  60.9036182  33.9454005  24.3930465  61.5652616  33.3844673  24.2926374
  60.2627594  33.4506035  24.7183156  60.9065050  33.7890414  24.4262805
  51.7912990  37.2424136  16.7011388  52.2064138  36.9109160  16.0095884
  50.9604919  37.0093038  16.5731525  51.7300998  37.1595392  16.5802236
  57.1901013  34.9619387  24.1342454  57.4256602  35.1064586  23.3069305
  57.3390576  35.7261795  24.5273968  57.2466816  35.0958441  24.0706058
  59.0191469  33.8021053  21.9712058  59.3499687  34.3348693  21.3652153
  59.5924558  33.8559941  22.6274009  59.1525149  33.8890622  21.9789839
  54.2323359  31.6485956  22.6535638  54.3270213  32.3875250  23.1075263
  53.6082202  31.2203431  23.0870202  54.1532389  31.6947276  22.7843785
  54.4846380  33.4934695  15.8872590  54.4026542  33.5636883  16.7527577
  55.1226100  34.0564439  15.6956330  54.5666217  33.5873667  15.9862539
  52.9240601  25.3623884  25.4551209  52.2196928  24.8733070  25.6135128
  52.9725575  25.3746359  24.5839653  52.8270653  25.2913532  25.3490549
  46.8174263  30.8133196  25.8412011  46.2423854  30.9725364  26.4775972
  46.4409939  30.1768605  25.3780461  46.6777076  30.7431009  25.8666569
  60.1270821  29.0431550  23.4752219  59.8707386  28.2311491  23.2850102
  60.9700135  29.0509117  23.2482407  60.2136846  28.9243547  23.4137036
  54.3073913  22.9831174  28.2128374  54.6884425  22.3009345  28.5996248
  53.5037198  22.6940776  28.0304038  54.2450375  22.8398222  28.2432429
  51.5886490  33.5155150  18.8981196  52.4027129  33.8070043  18.7863968
  51.5245631  32.8615012  18.3239489  51.6989229  33.4620345  18.7970034
  47.4594398  36.9876667  24.0253508  48.0968345  36.7488415  24.5705302
  47.8849470  37.1913826  23.2906669  47.6170565  36.9827677  23.9970666
  48.0997213  32.2078957  18.3628398  48.4842366  31.9886664  19.1144943
  47.8508834  33.0341902  18.4929474  48.1199286  32.2977103  18.4929474
  58.8332401  35.9825595  29.3739066  58.5278218  36.7153652  29.7352382
  58.1138617  35.5763524  29.0931853  58.6819743  36.0307328  29.3852204
  64.5334193  32.6218595  28.7007411  64.4658693  32.6414554  27.8309997
  64.5189855  33.4648923  28.9263081  64.5212949  32.7492330  28.6059888
  45.8197651  23.8775894  23.6937178  44.9520076  23.9498493  23.7594788
  46.1072855  24.6797973  23.8825153  45.7337399  24.0070041  23.7311945
  54.9430539  24.0253753  32.0248500  55.6884131  23.8363563  31.6111926
  54.5267844  24.5511991  31.4662356  54.9915514  24.0755898  31.8813073
  48.3820456  40.4283833  20.4360768  48.6718754  40.0372814  19.7119995
  49.1123937  40.6100538  20.8766043  48.5327340  40.3977647  20.3943575
  62.3192810  31.3962982  26.9754005  62.8700732  30.7631051  27.2151097
  62.3036926  31.9278374  27.6669509  62.3978007  31.3811930  27.1132863
  56.0221217  29.6359315  26.0858601  55.6785982  28.9149650  26.4365851
  56.1214259  29.4273166  25.2436960  55.9863259  29.4983518  26.0130281
  48.4894327  43.7780605  22.2851610  49.1418385  43.2457048  22.5142636
  47.7919936  43.4249258  22.6719484  48.4825045  43.6470128  22.3763778
  45.4375592  36.1319783  21.6918984  46.1921560  36.5132822  21.9054447
  44.8446205  36.5830927  22.1465681  45.4612306  36.2548610  21.7901863
  56.4834246  36.0985019  21.6282589  57.0492278  36.7578229  21.5441132
  55.8362149  36.4434717  22.0998992  56.4713002  36.2466961  21.6855346
  43.7465003  27.3534153  21.1354055  43.4589799  26.9835423  20.3986002
  44.4335471  27.8229008  20.8737759  43.8053900  27.3681122  20.9869130
  52.9540824  39.0423803  21.0519669  52.7127500  38.3091664  20.6446734
  53.1342157  39.5910660  20.3986002  52.9448448  39.0146195  20.8949892
  48.1840144  34.3332363  22.4640591  47.9882927  34.9407098  21.8700894
  48.4074490  33.6400307  21.9832265  48.1874785  34.3209889  22.3056672
  46.5818674  31.2187101  22.5821459  47.3041326  31.3828259  22.1225265
  46.1026667  31.9396766  22.4760799  46.6182405  31.3485331  22.4987073
  54.5412182  27.5550900  27.9618144  53.7023283  27.5812179  27.7256407
  54.6116549  28.2021635  28.5423491  54.4280575  27.6547026  28.0127261
  52.9881460  24.4536277  22.6945760  53.6907813  24.2544025  22.2165718
  52.7225649  23.6812219  23.0014604  53.0528093  24.3099243  22.6691202
  58.4169706  32.7618887  25.2479386  58.3303680  32.9174313  26.1014165
  57.9620186  33.4056962  24.8738791  58.3372962  32.8794642  25.3186493
  41.3193197  28.1315365  21.9839336  41.4209334  28.9341527  22.3120311
  42.1149084  27.9302701  21.6862416  41.4521103  28.2201264  21.9874691
  52.2895522  30.0829634  23.8704945  52.0430236  30.0025385  24.7041734
  52.6180645  29.2983102  23.6767473  52.3016765  29.9555899  23.9652469
  56.1843571  36.7912993  27.6591727  56.0457930  37.4894039  28.1640469
  55.4043569  36.6361650  27.3027908  56.0486798  36.8713160  27.6818001
  50.4212466  32.0176521  31.0653060  49.6735781  32.2107535  30.6601338
  50.5753992  31.1921740  30.8277181  50.3334894  31.9241632  30.9698466
  57.6796944  36.1491247  18.4208226  57.3003752  35.3628385  18.4137515
  57.0163189  36.6978104  18.2779870  57.5255418  36.1136071  18.3989023
  55.1341569  19.0916947  25.8242307  55.2525138  19.5493410  25.0909609
  54.9603745  18.2862208  25.5378524  55.1260740  19.0410719  25.6743240
  50.5043852  39.7004766  22.2597052  51.2693743  39.4314410  21.9379716
  50.4021942  39.2154776  22.9767115  50.6025347  39.5894331  22.3176880
  48.5396621  27.9029175  28.7990288  47.7492696  27.7220636  29.1207624
  48.9357244  27.1256128  28.7820582  48.4813498  27.7616636  28.8442836
  53.0262512  36.7316950  14.2397001  53.7935497  36.7917075  13.8302853
  52.5793821  36.1597391  13.7553320  53.0735939  36.6553525  14.1074712
  53.9240308  35.5371606  26.5249734  53.2485310  35.3056838  27.0263121
  53.9332684  34.9292789  25.8991839  53.8258812  35.4130531  26.5065886
  55.9257042  38.3936738  18.7559912  56.0076880  39.2003724  18.4321363
  56.4106785  38.4132697  19.4800685  56.0094200  38.5157400  18.8146810
  45.0235991  33.5673625  22.8557962  45.1800610  33.5020428  23.7113954
  45.3636584  34.3422178  22.6436642  45.0969225  33.6722823  22.9512556
  51.5615135  32.9431509  21.7251325  52.1030681  32.4401890  22.1889946
  51.8761694  32.8896704  20.9140811  51.6879532  32.8610930  21.6735138
  49.7301585  38.3348860  19.0091353  49.7994405  37.4763399  19.1484354
  50.5090040  38.5520741  18.6810378  49.8554435  38.2401724  18.9808511
  54.1209072  40.7586562  23.2227847  53.7288864  40.4553277  22.5050713
  54.2762145  41.5955652  23.0332801  54.0862662  40.8370398  23.0884344
  54.8743493  29.4456879  32.7156933  54.0620174  29.1382769  32.7970106
  55.3333427  28.9655879  33.2799645  54.8223877  29.3293371  32.8111527
  54.2848747  37.3236551  23.1633877  53.9263402  37.4951193  23.9397910
  53.7987458  37.7849756  22.6061876  54.1607444  37.4175522  23.1959146
  52.1019133  20.9467749  26.7660969  51.2312691  20.9206470  26.7194278
  52.3559474  20.7744941  25.9486814  52.0112693  20.9177893  26.6381105
  49.0737113  33.0035716  15.7034112  49.3629637  33.7800598  15.9777686
  49.1608912  32.4924447  16.4048611  49.1291369  33.0427634  15.8476610
  49.1268274  22.9573978  28.2234439  48.6106762  22.2654169  28.3486018
  48.5662203  23.6244755  28.1697038  48.9674787  22.9537235  28.2340505
  51.1960507  23.4966938  30.0527292  50.8092260  23.5215969  30.8340822
  50.7093444  22.9308616  29.6001808  51.0673016  23.4162688  30.1015195
  57.1710487  30.0629592  28.6766994  56.7438095  29.9755941  27.9215093
  56.5336540  30.1707368  29.2621838  57.0140094  30.0662252  28.6512435
  50.8617649  20.3833923  32.3437552  51.4910767  20.9194223  32.0658622
  51.0303512  20.2911282  33.1951117  50.9795443  20.4495285  32.4286080
  42.7176621  29.9388517  25.6318974  42.3233318  30.0131529  24.8569084
  42.1616737  30.3246464  26.1827336  42.5779433  30.0070292  25.5986634
  54.3541567  22.9169812  25.3122853  54.5591161  22.8492119  26.1579851
  54.0267991  23.7228633  25.2444031  54.3356815  23.0255752  25.4282509
  49.0517718  30.2450380  27.0531821  48.7480856  29.6906368  27.6542229
  48.3497139  30.4242590  26.5659856  48.9033928  30.1895162  27.0701527
  48.1083816  27.5550900  21.6176523  48.3843550  26.8369812  21.2054091
  48.7082485  28.1535819  21.4097629  48.2377080  27.5371270  21.5257284
  57.6075255  23.4701576  24.7925619  56.9949569  23.9571978  25.1779351
  57.7039430  22.7945067  25.3363270  57.5313153  23.4419885  24.9304477
  51.6094336  25.2264417  19.8923118  52.0638083  25.3974977  20.6170963
  52.0834382  24.6132528  19.4920894  51.7462656  25.1615302  19.9396880
  45.5270484  25.8714741  29.8893874  45.9871966  25.9453670  30.6268998
  45.5726591  26.6695995  29.5393696  45.6021040  26.0008888  29.9466631
  61.2500283  34.5418513  30.2203135  61.3083407  34.9905161  30.9663111
  60.6166751  34.9517325  29.7833215  61.1651578  34.6692247  30.2655683
  54.8899378  40.1622054  26.6557881  54.6919066  40.6512869  25.9614093
  54.2687089  40.3663296  27.2342015  54.7686942  40.2638593  26.6381104
  48.9507356  31.9306951  20.9968125  49.6949401  32.3181228  21.2351075
  49.0968052  31.0864377  21.1608613  49.0817941  31.8637424  21.0562095
  50.8686932  23.7257210  26.0299987  50.0222977  23.8980018  25.9041337
  50.8658064  22.9206554  26.3665815  50.7434081  23.6318239  26.0611114
  51.9385232  27.5032425  26.8962045  51.4645186  26.9774187  27.4067356
  52.3103368  26.9561897  26.3276906  51.9235121  27.3448421  26.8877192
  58.2021963  32.5634800  28.3068825  57.9620185  31.7241215  28.3111252
  58.6813970  32.6434967  29.0309599  58.2374146  32.4516200  28.4143628
  53.8668732  28.3968979  19.9587799  53.3391750  28.4797723  19.2693507
  54.3264440  29.1386851  19.9552443  53.8570582  28.5189642  19.8562494
  60.2027150  29.3436257  26.2598084  59.9636920  29.3032092  25.4218869
  60.3661051  30.1907409  26.3863806  60.1917453  29.4628342  26.1551566
  56.8073180  33.7286207  32.1903130  57.5307379  33.2758733  32.0114149
  56.5423142  34.0090872  31.4075457  56.8754453  33.7037175  32.0481845
  45.6760048  28.3246380  28.9256009  45.0513118  28.3364772  28.3181961
  45.3405643  28.8006555  29.5747249  45.5345540  28.3964897  28.9312577
  45.8601797  26.6671499  14.9828694  45.5114601  27.3191224  15.4460243
  45.3798243  26.6528612  14.2552565  45.7372041  26.7614552  14.9439785
  53.4205814  36.9672543  19.0897456  54.1440013  37.4330656  18.9462029
  52.9806405  37.0346152  18.3395053  53.4621506  37.0456379  18.9582237
  52.8871096  22.1000764  31.6981667  52.3911658  22.2964438  31.0073233
  53.6440158  22.4993432  31.5270468  52.9257921  22.1878497  31.5701803
  50.1573976  25.7743110  28.2884977  50.1816463  25.2403222  27.5997757
  50.4085450  25.2660418  28.9510568  50.1983895  25.6204014  28.2849622
  46.4375298  24.5013928  27.6690722  46.4773670  25.0023134  28.3825429
  45.6124963  24.5924321  27.3996645  46.3214824  24.5895744  27.7341260
  46.2325705  29.2930029  20.4954738  46.3728667  29.7902493  21.1983380
  46.7308238  28.5916324  20.6368952  46.3266786  29.2632008  20.6206317
  46.2625928  30.1597140  17.8247315  46.8971007  30.7557565  17.7596777
  46.3451539  29.8600598  18.6393185  46.3682479  30.2038048  17.9350402
  59.2408494  32.6912618  30.6933679  59.8326334  33.3309868  30.7251877
  59.6767488  31.9935654  30.9825746  59.3926925  32.6830968  30.7414512
  47.8404911  26.0911116  17.7992757  48.1620752  25.6114198  17.1452019
  48.1031854  26.9010762  17.6083569  47.9270936  26.1401014  17.6748249
  53.2364066  25.4783310  30.1616236  53.6619137  25.0255836  29.5499763
  52.6221059  24.9243380  30.4381024  53.2092711  25.3297286  30.1121261
  42.7678916  32.3564981  21.0936861  43.2771145  32.9529488  21.4748167
  43.2413188  32.0890955  20.4113281  42.9122291  32.4050796  21.0491384
  53.6809664  41.0293248  19.2495517  52.9638974  40.8554110  18.7842754
  54.3316401  40.7945820  18.7171003  53.6711514  40.9689040  19.1024735
  51.6758289  21.9498409  23.5706813  51.0326606  21.7996056  24.1391952
  51.3357696  21.7040755  22.8055918  51.5303366  21.8910532  23.5409828
  56.2657635  29.9057836  22.9936822  55.5948825  30.4487538  22.8649887
  56.9597385  30.3752692  22.7518517  56.2686503  30.0556107  22.9392350
  56.4285762  26.3613720  25.9027195  56.7813373  25.9343443  26.5772994
  55.5700564  26.2764563  26.0328271  56.3535207  26.2858460  26.0222205
  45.1269447  28.9921240  23.9610042  44.4081437  29.4085372  24.2282905
  45.4981810  29.5575478  23.4101680  45.0761379  29.1370521  23.9192849
  54.4269028  29.6249088  29.8512037  54.4066956  29.4432384  30.7046816
  54.4748229  30.4961107  29.8271621  54.4303669  29.7265627  29.9735332
  50.9016022  28.0319239  19.2983421  50.3080861  28.3536236  18.7467988
  50.9391300  27.1860335  19.0904527  50.8190411  27.9543568  19.1866192
  57.8609823  21.4832132  26.8311508  57.3540687  20.7761271  26.7632685
  58.6577256  21.1525321  26.9612584  57.9037062  21.3305283  26.8410502
  53.7773838  27.9898744  22.7285171  53.5487531  28.0131445  21.8863529
  54.0371915  27.1656211  22.8480182  53.7820026  27.8714824  22.6210369
  46.8318601  26.5275290  24.0239367  47.3075967  26.8892370  23.3889548
  46.3307201  27.1831758  24.3039510  46.8283960  26.6769479  23.9716108
  60.0629963  35.9997058  19.8152372  60.4463568  36.7488414  20.0450469
  59.2674076  36.2462878  19.5564361  60.0023745  36.1466752  19.8109945
  48.8745254  28.6716490  17.3912751  49.2544219  28.6896119  16.6063866
  48.1337850  29.1170479  17.2703598  48.8214092  28.7398265  17.2576319
  56.5030545  26.9798681  22.9788330  56.5024771  26.8247338  23.8372606
  56.2986725  27.8261668  22.9229715  56.4730322  27.0819302  23.0976269
  54.2271397  31.6596183  26.6324536  54.7225062  30.9419178  26.5928557
  53.4171172  31.3566981  26.5179023  54.1815290  31.5093829  26.6098262
  49.6730008  35.5093996  18.7821541  48.8641331  35.1860670  18.7354850
  50.1804917  34.8027218  18.7149790  49.6279675  35.3575313  18.7651835
  56.2923216  34.4099871  29.3201665  56.7178287  33.8874292  28.7672090
  55.9280135  35.0080708  28.7990288  56.3009818  34.4210098  29.1610675
  52.8801815  38.1234135  25.6502823  53.3512993  38.8374397  25.8192808
  53.2161993  37.5232885  26.1862692  52.9996930  38.1405599  25.7535199
  49.7971310  22.8961605  32.6060917  49.9299216  22.0992599  32.9341893
  50.1816463  23.4228008  33.1859193  49.8727639  22.8561522  32.7404420
  52.8703665  19.8191931  29.2042011  52.0649629  19.7089661  29.5209849
  52.7410401  19.9204387  28.3471877  52.7323798  19.8175602  29.1250051
  56.3269626  25.9837423  29.7981708  55.7432614  26.4846630  29.3859275
  56.6473920  25.4766980  29.1646031  56.2882801  25.9829258  29.6440215
  48.8664425  24.8978018  20.0740382  49.6880119  25.0676331  19.8322077
  48.4034076  25.0525279  19.3506680  48.9195587  24.9459751  19.9312027
  47.4559757  22.8920780  30.8538811  48.0004170  22.5511907  31.4443153
  47.5096692  23.7506242  30.9960096  47.5448876  22.9676040  30.9620685
  69.5547738  46.5767993  21.9082733  69.5241742  47.4312630  22.0801002
  70.1529087  46.2763286  22.4668876  69.6384896  46.6584490  22.0157535
  62.7547423  45.6643644  26.6635663  61.8985318  45.8252143  26.7144780
  62.8015077  44.7935708  26.6840724  62.6346534  45.5594446  26.6741729
  57.1388563  55.2006362  22.4272895  56.3871462  54.8221901  22.1988940
  57.5874574  55.2324796  21.6791705  57.0938229  55.1491969  22.2830397
  66.0641139  51.9330170  36.2696119  66.7707907  51.4382201  36.3983054
  66.2529075  52.3739251  35.5398777  66.1969045  51.9248520  36.1805165
  62.5913522  55.6231732  17.8558442  62.2564891  56.3008653  17.4202664
  63.1040393  55.2337043  17.2675314  62.6179104  55.6656310  17.7045233
  62.1317814  57.5746000  23.7969554  62.5157193  58.1432899  23.2574329
  62.0676955  56.8495511  23.3175370  62.1791241  57.5521464  23.6463416
  65.5999244  47.7235688  29.3067315  66.1455204  48.4020775  29.3661285
  65.5416120  47.5823149  28.4468896  65.6715158  47.8027690  29.1879375
  58.7173319  55.2124754  24.6935667  58.8183682  54.4025108  25.0032795
  58.1215064  55.1181701  24.0635346  58.6445857  55.0789782  24.6461906
  67.3764312  49.1520295  20.1801043  67.2603838  49.9027981  20.6093181
  68.1720199  48.8944249  20.4297130  67.4768902  49.2255142  20.2805134
  58.5574058  60.1302344  26.0950523  59.2011514  60.5715508  26.4846682
  58.8830314  59.3255770  26.0080782  58.7005887  60.0767538  26.1396001
  51.9138363  51.2345041  24.3188001  51.6788547  50.4012693  24.2120270
  52.0524004  51.5149707  23.5049202  51.8994025  51.1528544  24.1830356
  54.2128450  43.4030772  27.2172309  53.5933482  42.8123419  27.0482323
  54.1112314  43.9942207  26.5836632  54.1066126  43.4034854  27.0977298
  59.2594638  53.1414318  21.4670385  59.5810479  53.6819526  20.8631693
  59.9066735  52.5711090  21.5992675  59.4020693  53.1373494  21.3977420
  61.3096346  45.1430313  21.5504772  62.0076511  45.3218441  22.0426235
  61.6248679  44.6200653  20.9275161  61.4591683  45.0924085  21.5306782
  61.4984281  51.5300758  21.5384563  61.9377917  50.9217859  21.9839336
  61.3488944  51.1508132  20.7670028  61.5405747  51.3839229  21.4903731
  61.5042016  52.9699676  28.3910281  61.7865259  52.1751082  28.1697037
  62.2328176  53.4480263  28.4115342  61.6531580  52.9234273  28.3613296
  59.4823210  40.5122710  25.6326046  59.1526540  40.9633854  24.9629745
  58.8068211  40.4338873  26.1799053  59.3333646  40.5673845  25.6149270
  65.0993618  49.8827940  18.4915333  65.0144913  50.7388906  18.6364901
  65.5878001  49.6072264  19.1597492  65.1582515  49.9685261  18.6117414
  66.6899617  36.5008233  23.8775657  66.3753058  37.1911711  24.3096079
  66.1726559  36.4453015  23.1761158  66.5664088  36.5943121  23.8372606
  66.0312051  46.5012734  19.9913068  65.5023523  46.7172367  20.6510374
  66.5537071  47.1948872  19.9114037  66.0300504  46.6355871  20.0768667
  71.4860104  52.0759038  25.3646112  70.6557807  52.2869682  25.5279529
  71.4369356  51.2496093  25.0888396  71.3566840  51.9848645  25.3483478
  57.9211659  50.3975951  18.7920536  57.3368874  50.9025982  19.1986400
  57.5181754  50.1718337  18.0517128  57.7750963  50.4384199  18.7425561
  59.5469842  54.9062892  28.1994022  59.0296783  54.5470307  27.5955330
  60.2444233  54.3825067  28.2100088  59.5735423  54.7760580  28.1124280
  63.2033434  55.3557706  34.1610195  63.2916780  55.1683847  35.0088405
  63.6323146  54.7095136  33.7615041  63.2795536  55.2320714  34.2281946
  60.7703893  54.6388866  33.1427857  60.2074728  54.2261476  33.6667518
  61.5324917  54.5641772  33.5621000  60.7998342  54.5666267  33.2820857
  62.3788873  46.6441603  17.2689456  62.6184877  46.8519586  16.4564799
  62.7004714  45.8399111  17.3778401  62.4626031  46.5555704  17.1650009
  57.6879164  38.5734998  21.1148994  58.4425132  38.9413315  20.8766044
  57.5106698  38.9474553  21.8828174  57.7733642  38.6833186  21.1933883
  56.3299885  56.6286888  25.7464487  57.0320464  56.1138877  25.8037244
  56.2497368  56.9561039  26.5511362  56.4223645  56.6001114  25.8737279
  70.9814062  44.7229439  29.1596533  70.1442484  44.7931626  29.3944128
  70.9502293  44.7253934  28.2870836  70.8532345  44.7339666  29.0656081
  56.0436228  40.9805317  17.8127107  55.8611802  41.1977198  16.9868100
  56.9061841  41.0944330  17.8685722  56.1440818  41.0295215  17.6981594
  55.6550660  52.8193240  25.2550095  56.4939560  53.0516172  25.3023857
  55.6862430  51.9497551  25.1857130  55.7832378  52.7250186  25.2514740
  61.7235948  37.9831728  20.8476131  62.4522108  37.8047683  20.4014287
  61.8130840  38.8249808  21.0583309  61.8442610  38.0815606  20.8129649
  65.7044248  48.9185115  24.7508425  66.4601763  49.3516630  24.7897334
  65.8106573  48.2689885  25.3243061  65.8314419  48.8862599  24.8406451
  68.7424419  52.7458393  25.5010828  68.3059651  52.7495135  26.2569799
  68.4087335  53.4263892  25.0690405  68.6287039  52.8470848  25.5491660
  68.6621902  39.7872220  27.7440256  69.3047811  39.8570325  28.3302171
  68.9144923  39.1201443  27.2419798  68.7944034  39.6998569  27.7567535
  55.5898255  44.2579490  16.3249580  54.8756433  43.9717670  16.7372013
  56.0742224  44.5976116  16.9655968  55.5557619  44.2661140  16.4805215
  63.4723886  56.6976828  30.4720434  62.6739132  56.4576328  30.7294302
  63.9209898  56.7491220  31.2187481  63.4198498  56.6699219  30.6205358
  71.8768766  49.4639313  24.3930465  72.5385200  48.9029981  24.2926374
  71.2360178  48.9691343  24.7183156  71.8797633  49.3075722  24.4262805
  62.7645573  52.7609444  16.7011388  63.1796722  52.4294468  16.0095884
  61.9337503  52.5278346  16.5731525  62.7033582  52.6780700  16.5802236
  68.1633596  50.4804695  24.1342454  68.3989185  50.6249894  23.3069305
  68.3123160  51.2447103  24.5273968  68.2199400  50.6143749  24.0706058
  69.9924053  49.3206361  21.9712058  70.3232270  49.8534001  21.3652153
  70.5657141  49.3745249  22.6274009  70.1257732  49.4075930  21.9789839
  65.2055942  47.1671264  22.6535638  65.3002797  47.9060558  23.1075263
  64.5814786  46.7388739  23.0870202  65.1264972  47.2132584  22.7843785
  63.4608416  50.3457476  33.3025919  64.0347278  49.7084720  33.4574483
  63.3823220  50.3461559  32.4335576  63.5341651  50.2522588  33.1972330
  65.4578963  49.0120003  15.8872590  65.3759126  49.0822191  16.7527577
  66.0958684  49.5749747  15.6956330  65.5398801  49.1058974  15.9862539
  58.8172135  48.7780741  25.3547116  58.5591379  47.9452476  25.3278416
  58.8720617  49.0038354  24.5139617  58.7871912  48.6878513  25.2267253
  63.8973185  40.8809192  25.4551209  63.1929511  40.3918378  25.6135128
  63.9458159  40.8931666  24.5839653  63.8003236  40.8098840  25.3490549
  57.7906847  46.3318504  25.8412011  57.2156438  46.4910672  26.4775972
  57.4142523  45.6953913  25.3780461  57.6509659  46.2616317  25.8666569
  71.1003405  44.5616858  23.4752219  70.8439969  43.7496799  23.2850102
  71.9432718  44.5694425  23.2482407  71.1869430  44.4428855  23.4137036
  65.2806497  38.5016482  28.2128374  65.6617009  37.8194653  28.5996248
  64.4769781  38.2126084  28.0304038  65.2182959  38.3583530  28.2432429
  62.5619074  49.0340458  18.8981196  63.3759712  49.3255350  18.7863968
  62.4978215  48.3800320  18.3239489  62.6721813  48.9805652  18.7970034
  68.7828564  51.7166454  33.3110772  68.5467201  50.8854519  33.1922833
  69.4271793  51.6652061  33.8965616  68.8423235  51.5864142  33.3796666
  58.4326982  52.5061975  24.0253508  59.0700929  52.2673723  24.5705302
  58.8582053  52.7099134  23.2906669  58.5903148  52.5012985  23.9970666
  59.0729797  47.7264265  18.3628398  59.4574950  47.5071972  19.1144943
  58.8241417  48.5527210  18.4929474  59.0931870  47.8162411  18.4929474
  69.8064984  51.5010903  29.3739066  69.5010801  52.2338959  29.7352382
  69.0871200  51.0948832  29.0931853  69.6552327  51.5492636  29.3852204
  60.8148454  52.9834398  25.7047295  60.8887462  52.8209570  26.5589145
  61.6317960  53.1724587  25.4607776  60.9464812  52.9871140  25.7945320
  75.5066777  48.1403903  28.7007411  75.4391277  48.1599862  27.8309997
  75.4922439  48.9834230  28.9263081  75.4945533  48.2677638  28.6059888
  54.5754211  53.3292261  22.7341738  53.7492328  53.5753998  22.6076017
  54.6366202  53.2504341  23.6003796  54.4628378  53.3537210  22.8430683
  56.7930234  39.3961202  23.6937178  55.9252660  39.4683801  23.7594788
  57.0805439  40.1983281  23.8825153  56.7069982  39.5255349  23.7311945
  65.9163123  39.5439061  32.0248500  66.6616715  39.3548871  31.6111926
  65.5000428  40.0697299  31.4662356  65.9648097  39.5941206  31.8813073
  59.3553040  55.9469141  20.4360768  59.6451338  55.5558122  19.7119995
  60.0856520  56.1285846  20.8766043  59.5059924  55.9162955  20.3943575
  73.2925394  46.9148289  26.9754005  73.8433315  46.2816359  27.2151097
  73.2769509  47.4463682  27.6669509  73.3710590  46.8997238  27.1132863
  57.2958955  57.9236523  23.5020918  57.0759251  57.6333878  24.2947585
  57.0753477  57.2651478  22.9738830  57.2306549  57.7836232  23.5409826
  56.2075902  50.0109840  25.7676619  55.9189151  49.3847311  26.3022347
  57.0759250  49.9530127  25.8341300  56.2936154  49.9097384  25.8567574
  66.9953800  45.1544623  26.0858601  66.6518566  44.4334958  26.4365851
  67.0946843  44.9458474  25.2436960  66.9595843  45.0168826  26.0130281
  59.4626911  59.2965913  22.2851610  60.1150969  58.7642355  22.5142636
  58.7652520  58.9434565  22.6719484  59.4557629  59.1655436  22.3763778
  56.4108176  51.6505091  21.6918984  57.1654144  52.0318130  21.9054447
  55.8178788  52.1016234  22.1465681  56.4344889  51.7733918  21.7901863
  67.4566829  51.6170327  21.6282589  68.0224862  52.2763537  21.5441132
  66.8094733  51.9620025  22.0998992  67.4445586  51.7652269  21.6855346
  54.7197586  42.8719461  21.1354055  54.4322382  42.5020731  20.3986002
  55.4068055  43.3414316  20.8737759  54.7786484  42.8866430  20.9869130
  63.9273407  54.5609111  21.0519669  63.6860083  53.8276972  20.6446734
  64.1074740  55.1095968  20.3986002  63.9181031  54.5331503  20.8949892
  59.1572728  49.8517671  22.4640591  58.9615511  50.4592406  21.8700894
  59.3807074  49.1585615  21.9832265  59.1607369  49.8395197  22.3056672
  57.5551258  46.7372409  22.5821459  58.2773910  46.9013567  22.1225265
  57.0759251  47.4582074  22.4760799  57.5914989  46.8670639  22.4987073
  65.5144766  43.0736208  27.9618144  64.6755866  43.0997487  27.7256407
  65.5849133  43.7206943  28.5423491  65.4013159  43.1732334  28.0127261
  63.9614044  39.9721585  22.6945760  64.6640397  39.7729333  22.2165718
  63.6958233  39.1997527  23.0014604  64.0260676  39.8284551  22.6691202
  69.3902289  48.2804195  25.2479386  69.3036264  48.4359621  26.1014165
  68.9352769  48.9242270  24.8738791  69.3105546  48.3979950  25.3186493
  52.2925781  43.6500673  21.9839336  52.3941917  44.4526835  22.3120311
  53.0881668  43.4488009  21.6862416  52.4253687  43.7386572  21.9874691
  63.2628105  45.6014942  23.8704945  63.0162820  45.5210693  24.7041734
  63.5913229  44.8168410  23.6767473  63.2749349  45.4741207  23.9652469
  67.1576154  52.3098301  27.6591727  67.0190514  53.0079347  28.1640469
  66.3776152  52.1546958  27.3027908  67.0219381  52.3898468  27.6818001
  65.4954239  48.6094676  33.9114108  65.4902278  47.7374493  33.9156535
  66.2015233  48.8082846  33.4383564  65.5999243  48.5098551  33.8421144
  58.2952888  56.5274432  30.1488955  58.4442451  55.9677348  29.4962360
  59.0752890  56.6066434  30.5321474  58.4326981  56.4559998  30.1085905
  68.6529527  51.6676555  18.4208226  68.2736336  50.8813693  18.4137515
  67.9895773  52.2163412  18.2779870  68.4988002  51.6321379  18.3989023
  60.8206188  56.6989075  31.4273446  60.7449859  56.0297886  31.9824234
  60.7496047  57.4006863  31.9414112  60.7986795  56.7033982  31.5850294
  66.1074153  34.6102255  25.8242307  66.2257721  35.0678718  25.0909609
  65.9336329  33.8047516  25.5378524  66.0993324  34.5596027  25.6743240
  61.4776435  55.2190074  22.2597052  62.2426326  54.9499718  21.9379716
  61.3754525  54.7340084  22.9767115  61.5757931  55.1079639  22.3176880
  63.9995096  52.2502258  14.2397001  64.7668081  52.3102383  13.8302853
  63.5526405  51.6782699  13.7553320  64.0468523  52.1738833  14.1074712
  64.8972891  51.0556914  26.5249734  64.2217893  50.8242146  27.0263121
  64.9065267  50.4478096  25.8991839  64.7991396  50.9315839  26.5065886
  66.8989626  53.9122046  18.7559912  66.9809463  54.7189032  18.4321363
  67.3839368  53.9318005  19.4800685  66.9826784  54.0342708  18.8146810
  60.2097823  60.1057395  29.8851447  60.6993753  59.4068184  29.7027112
  59.6382055  59.8081265  30.4727504  60.1982353  59.9583618  29.9452488
  55.9968574  49.0858933  22.8557962  56.1533193  49.0205736  23.7113954
  56.3369167  49.8607486  22.6436642  56.0701809  49.1908131  22.9512556
  62.5347719  48.4616817  21.7251325  63.0763264  47.9587198  22.1889946
  62.8494278  48.4082012  20.9140811  62.6612116  48.3796238  21.6735138
  66.4064826  52.6719464  38.8378238  67.2199691  52.4004613  38.9983370
  66.2459793  52.3727004  38.0338434  66.5034775  52.5874390  38.7423644
  60.7034168  53.8534168  19.0091353  60.7726989  52.9948707  19.1484354
  61.4822624  54.0706049  18.6810378  60.8287019  53.7587032  18.9808511
  65.0941656  56.2771870  23.2227847  64.7021448  55.9738585  22.5050713
  65.2494728  57.1140960  23.0332801  65.0595246  56.3555706  23.0884344
  52.5702836  46.2693884  23.1718729  52.9501801  46.6878429  22.5078997
  51.9958200  46.8507339  23.4787573  52.5414161  46.4171743  23.1195470
  65.2581331  52.8421859  23.1633877  64.8995986  53.0136501  23.9397910
  64.7720042  53.3035064  22.6061876  65.1340028  52.9360830  23.1959146
  63.0751717  36.4653057  26.7660969  62.2045275  36.4391778  26.7194278
  63.3292058  36.2930249  25.9486814  62.9845277  36.4363201  26.6381105
  60.0469696  48.5221024  15.7034112  60.3362221  49.2985906  15.9777686
  60.1341495  48.0109755  16.4048611  60.1023952  48.5612942  15.8476610
  60.1000857  38.4759285  28.2234439  59.5839346  37.7839477  28.3486018
  59.5394786  39.1430063  28.1697038  59.9407371  38.4722543  28.2340505
  62.1693091  39.0152245  30.0527292  61.7824844  39.0401277  30.8340822
  61.6826028  38.4493924  29.6001808  62.0405600  38.9347996  30.1015195
  66.4186070  53.7325754  34.1101078  67.0565791  53.2385950  33.7763534
  65.7760162  53.6603155  33.5253305  66.4180297  53.6484763  33.9743433
  68.1443070  45.5814900  28.6766994  67.7170678  45.4941249  27.9215093
  67.5069123  45.6892676  29.2621838  67.9872678  45.5847560  28.6512435
  61.8350232  35.9019231  32.3437552  62.4643350  36.4379531  32.0658622
  62.0036095  35.8096590  33.1951117  61.9528027  35.9680593  32.4286080
  66.4740327  54.4245563  30.7506435  67.2632705  54.0734627  30.8708517
  66.6483925  55.2381951  30.4883069  66.6160608  54.4931420  30.7294303
  53.6909204  45.4573825  25.6318974  53.2965902  45.5316837  24.8569084
  53.1349321  45.8431772  26.1827336  53.5512017  45.5255600  25.5986634
  65.3274151  38.4355119  25.3122853  65.5323744  38.3677427  26.1579851
  65.0000575  39.2413941  25.2444031  65.3089399  38.5441060  25.4282509
  59.0816399  43.0736207  21.6176523  59.3576134  42.3555120  21.2054091
  59.6815068  43.6721127  21.4097629  59.2109664  43.0556578  21.5257284
  68.5807839  38.9886884  24.7925619  67.9682152  39.4757286  25.1779351
  68.6772014  38.3130375  25.3363270  68.5045736  38.9605192  24.9304477
  62.5826920  40.7449725  19.8923118  63.0370666  40.9160285  20.6170963
  63.0566965  40.1317836  19.4920894  62.7195240  40.6800610  19.9396880
  72.2232867  50.0603820  30.2203135  72.2815990  50.5090469  30.9663111
  71.5899334  50.4702633  29.7833215  72.1384162  50.1877555  30.2655683
  65.8631961  55.6807362  26.6557881  65.6651650  56.1698177  25.9614093
  65.2419672  55.8848604  27.2342015  65.7419526  55.7823901  26.6381104
  59.9239940  47.4492259  20.9968125  60.6681985  47.8366535  21.2351075
  60.0700636  46.6049685  21.1608613  60.0550525  47.3822732  21.0562095
  61.8419515  39.2442518  26.0299987  60.9955560  39.4165326  25.9041337
  61.8390648  38.4391862  26.3665815  61.7166665  39.1503547  26.0611114
  62.9117816  43.0217732  26.8962045  62.4377770  42.4959495  27.4067356
  63.2835951  42.4747205  26.3276906  62.8967704  42.8633729  26.8877192
  69.1754546  48.0820108  28.3068825  68.9352769  47.2426523  28.3111252
  69.6546553  48.1620275  29.0309599  69.2106730  47.9701508  28.4143628
  64.8401315  43.9154287  19.9587799  64.3124334  43.9983031  19.2693507
  65.2997023  44.6572159  19.9552443  64.8303166  44.0374949  19.8562494
  71.1759733  44.8621565  26.2598084  70.9369503  44.8217400  25.4218869
  71.3393634  45.7092717  26.3863806  71.1650037  44.9813650  26.1551566
  67.7805763  49.2471515  32.1903130  68.5039962  48.7944041  32.0114149
  67.5155726  49.5276180  31.4075457  67.8487037  49.2222483  32.0481845
  56.8334380  42.1856807  14.9828694  56.4847185  42.8376532  15.4460243
  56.3530826  42.1713920  14.2552565  56.7104624  42.2799860  14.9439785
  64.3938398  52.4857851  19.0897456  65.1172597  52.9515964  18.9462029
  63.9538989  52.5531460  18.3395053  64.4354090  52.5641687  18.9582237
  63.5624553  49.3455393  30.3398145  62.9481546  48.8013443  30.6346780
  64.0791838  48.8319629  29.8603961  63.5480215  49.1891802  30.3122373
  62.8020850  50.4159663  28.0742443  62.3748458  49.7909382  27.6407879
  62.7945794  50.1334585  28.9001450  62.7379991  50.2812444  28.1322271
  63.8603680  37.6186072  31.6981667  63.3644241  37.8149746  31.0073233
  64.6172742  38.0178740  31.5270468  63.8990505  37.7063805  31.5701803
  61.1306560  41.2928417  28.2884977  61.1549047  40.7588530  27.5997757
  61.3818033  40.7845726  28.9510568  61.1716478  41.1389321  28.2849622
  57.4107882  40.0199236  27.6690722  57.4506253  40.5208442  28.3825429
  56.5857546  40.1109629  27.3996645  57.2947408  40.1081052  27.7341260
  57.2058289  44.8115337  20.4954738  57.3461250  45.3087801  21.1983380
  57.7040822  44.1101632  20.6368952  57.2999370  44.7817316  20.6206317
  57.2358511  45.6782448  17.8247315  57.8703591  46.2742873  17.7596777
  57.3184122  45.3785906  18.6393185  57.3415062  45.7223356  17.9350402
  70.2141077  48.2097926  30.6933679  70.8058917  48.8495176  30.7251877
  70.6500072  47.5120962  30.9825746  70.3659508  48.2016276  30.7414512
  58.8137494  41.6096424  17.7992757  59.1353335  41.1299506  17.1452019
  59.0764438  42.4196070  17.6083569  58.9003520  41.6586321  17.6748249
  62.0434467  52.6315298  31.3191573  61.5359558  53.1851145  31.7632204
  61.7461113  52.6923588  30.5010348  61.9239352  52.7221609  31.2640030
  53.7411499  47.8750289  21.0936861  54.2503729  48.4714796  21.4748167
  54.2145772  47.6076263  20.4113281  53.8854875  47.9236104  21.0491384
  64.6542247  56.5478556  19.2495517  63.9371557  56.3739418  18.7842754
  65.3048985  56.3131128  18.7171003  64.6444098  56.4874348  19.1024735
  62.6490872  37.4683717  23.5706813  62.0059190  37.3181364  24.1391952
  62.3090279  37.2226063  22.8055918  62.5035949  37.4095840  23.5409828
  67.2390219  45.4243144  22.9936822  66.5681408  45.9672846  22.8649887
  67.9329969  45.8937999  22.7518517  67.2419086  45.5741415  22.9392350
  61.2876952  57.5639856  28.2248580  61.0642607  56.8058685  28.5932606
  60.7986796  57.5937877  27.5029020  61.1820401  57.4562081  28.1725321
  67.4018346  41.8799028  25.9027195  67.7545956  41.4528751  26.5772994
  66.5433148  41.7949871  26.0328271  67.3267791  41.8043768  26.0222205
  56.1002031  44.5106547  23.9610042  55.3814020  44.9270680  24.2282905
  56.4714393  45.0760786  23.4101680  56.0493963  44.6555829  23.9192849
  65.4001612  45.1434396  29.8512037  65.3799539  44.9617692  30.7046816
  65.4480813  46.0146415  29.8271621  65.4036253  45.2450935  29.9735332
  59.9355409  57.7840314  25.6785665  59.5215808  57.1214444  25.2889506
  60.6202784  57.9318173  25.1581359  59.9753781  57.7080972  25.5442162
  63.3020703  56.9430400  26.4309281  62.9036987  57.0532670  25.6630102
  62.6871923  57.1512466  27.0135841  63.1519593  56.9903968  26.4040581
  61.8748605  43.5504547  19.2983421  61.2813445  43.8721544  18.7467988
  61.9123883  42.7045643  19.0904527  61.7922995  43.4728876  19.1866192
  68.8342406  37.0017440  26.8311508  68.3273271  36.2946579  26.7632685
  69.6309840  36.6710628  26.9612584  68.8769645  36.8490591  26.8410502
  64.7506422  43.5084052  22.7285171  64.5220115  43.5316753  21.8863529
  65.0104498  42.6841519  22.8480182  64.7552610  43.3900132  22.6210369
  57.8051184  42.0460598  24.0239367  58.2808551  42.4077678  23.3889548
  57.3039784  42.7017066  24.3039510  57.8016543  42.1954787  23.9716108
  71.0362546  51.5182366  19.8152372  71.4196152  52.2673722  20.0450469
  70.2406659  51.7648186  19.5564361  70.9756328  51.6652060  19.8109945
  59.8477838  44.1901798  17.3912751  60.2276802  44.2081427  16.6063866
  59.1070434  44.6355787  17.2703598  59.7946675  44.2583573  17.2576319
  67.4763128  42.4983989  22.9788330  67.4757355  42.3432646  23.8372606
  67.2719308  43.3446976  22.9229715  67.4462906  42.6004610  23.0976269
  65.2003980  47.1781491  26.6324536  65.6957646  46.4604486  26.5928557
  64.3903756  46.8752289  26.5179023  65.1547874  47.0279137  26.6098262
  60.6462592  51.0279304  18.7821541  59.8373914  50.7045978  18.7354850
  61.1537501  50.3212526  18.7149790  60.6012259  50.8760621  18.7651835
  67.2655799  49.9285178  29.3201665  67.6910871  49.4059600  28.7672090
  66.9012719  50.5266016  28.7990288  67.2742402  49.9395405  29.1610675
  56.9009879  58.2249396  28.0799011  57.2156438  59.0385784  28.0876792
  57.3103292  57.8399615  28.7481170  57.0077977  58.2878098  28.1803102
  63.8534399  53.6419443  25.6502823  64.3245577  54.3559705  25.8192808
  64.1894577  53.0418193  26.1862692  63.9729514  53.6590907  25.7535199
  65.9411383  55.2520756  37.8294895  66.0508349  54.4629317  38.1851642
  66.2702280  55.1626692  37.0269233  66.0063789  55.1226609  37.7637285
  64.4908345  53.4337377  32.4130515  63.9429291  52.8095260  32.1450581
  64.9521374  53.6231649  31.6974595  64.4775554  53.3696427  32.2680946
  63.8436249  35.3377239  29.2042011  63.0382212  35.2274969  29.5209849
  63.7142984  35.4389695  28.3471877  63.7056382  35.3360909  29.1250051
  67.3002209  41.5022731  29.7981708  66.7165198  42.0031938  29.3859275
  67.6206503  40.9952288  29.1646031  67.2615385  41.5014566  29.6440215
  59.8397008  40.4163326  20.0740382  60.6612703  40.5861639  19.8322077
  59.3766659  40.5710587  19.3506680  59.8928171  40.4645059  19.9312027
  64.0566671  54.4388450  28.9439857  64.8765045  54.2951416  29.2056152
  63.7760749  55.0634648  29.4856294  64.1363415  54.5098802  29.0627796
  73.7280006  61.1828952  26.6635663  72.8717902  61.3437451  26.7144780
  73.7747660  60.3121016  26.6840724  73.6079118  61.0779754  26.6741729
  68.1121146  70.7191670  22.4272895  67.3604046  70.3407208  22.1988940
  68.5607158  70.7510104  21.6791705  68.0670813  70.6677277  22.2830397
  77.0373723  67.4515478  36.2696119  77.7440490  66.9567509  36.3983054
  77.2261658  67.8924559  35.5398777  77.1701629  67.4433828  36.1805165
  76.5731827  63.2420996  29.3067315  77.1187787  63.9206083  29.3661285
  76.5148704  63.1008457  28.4468896  76.6447742  63.3212998  29.1879375
  69.6905902  70.7310062  24.6935667  69.7916265  69.9210416  25.0032795
  69.0947648  70.6367009  24.0635346  69.6178441  70.5975090  24.6461906
  62.8870947  66.7530349  24.3188001  62.6521131  65.9198001  24.2120270
  63.0256587  67.0335015  23.5049202  62.8726609  66.6713852  24.1830356
  65.1861034  58.9216079  27.2172309  64.5666066  58.3308727  27.0482323
  65.0844898  59.5127515  26.5836632  65.0798710  58.9220162  27.0977298
  72.2828930  60.6615621  21.5504772  72.9809094  60.8403749  22.0426235
  72.5981262  60.1385961  20.9275161  72.4324267  60.6109393  21.5306782
  64.9130167  62.4668361  29.4615878  64.7888864  63.0530807  30.0965697
  65.5648452  61.9728557  29.7628153  64.9903816  62.4807166  29.6001807
  72.4716865  67.0486066  21.5384563  72.9110501  66.4403167  21.9839336
  72.3221528  66.6693440  20.7670028  72.5138331  66.9024537  21.4903731
  69.9388508  65.6430078  28.7403389  70.5837511  65.1502521  28.4214337
  70.1790285  65.7854865  29.5669467  70.0699093  65.5907520  28.8152922
  72.4774599  68.4884984  28.3910281  72.7597842  67.6936390  28.1697037
  73.2060760  68.9665571  28.4115342  72.6264163  68.4419581  28.3613296
  70.4555793  56.0308018  25.6326046  70.1259123  56.4819161  24.9629745
  69.7800795  55.9524181  26.1799053  70.3066230  56.0859153  25.6149270
  77.6632201  52.0193541  23.8775657  77.3485642  52.7097019  24.3096079
  77.1459143  51.9638323  23.1761158  77.5396671  52.1128429  23.8372606
  64.4488271  71.6316020  25.5944207  63.9655849  72.3566509  25.5703791
  65.2611590  71.9292150  25.7054365  64.4979019  71.7818373  25.6071486
  70.5202425  70.4248200  28.1994022  70.0029367  70.0655615  27.5955330
  71.2176817  69.9010375  28.2100088  70.5468006  70.2945888  28.1124280
  71.7436477  70.1574174  33.1427857  71.1807312  69.7446784  33.6667518
  72.5057501  70.0827080  33.5621000  71.7730926  70.0851575  33.2820857
  68.6611747  54.0920306  21.1148994  69.4157715  54.4598623  20.8766044
  68.4839282  54.4659861  21.8828174  68.7466226  54.2018494  21.1933883
  67.3032469  72.1472196  25.7464487  68.0053048  71.6324185  25.8037244
  67.2229952  72.4746347  26.5511362  67.3956229  72.1186422  25.8737279
  68.3511375  62.3847782  34.8744902  68.5231879  62.2753677  35.7230184
  68.8880733  63.0302188  34.6376094  68.4556379  62.4639784  34.9649999
  67.0168812  56.4990625  17.8127107  66.8344385  56.7162506  16.9868100
  67.8794425  56.6129638  17.8685722  67.1173401  56.5480523  17.6981594
  66.6283244  68.3378548  25.2550095  67.4672143  68.5701480  25.3023857
  66.6595013  67.4682859  25.1857130  66.7564962  68.2435494  25.2514740
  67.2535947  68.7579423  29.5563401  67.7934172  68.6150554  30.2266773
  66.5705893  69.1576174  29.9247427  67.2328101  68.7959094  29.7097822
  72.6968531  53.5017036  20.8476131  73.4254692  53.3232991  20.4014287
  72.7863424  54.3435116  21.0583309  72.8175193  53.6000914  20.8129649
  76.6776832  64.4370423  24.7508425  77.4334347  64.8701938  24.7897334
  76.7839156  63.7875193  25.3243061  76.8047002  64.4047907  24.8406451
  62.6573092  64.9779714  29.7097822  62.3911507  64.1618830  29.8688812
  62.6711656  65.0232869  28.8393338  62.6197814  64.8636618  29.6051304
  66.5630839  59.7764798  16.3249580  65.8489016  59.4902977  16.7372013
  67.0474808  60.1161424  16.9655968  66.5290202  59.7846448  16.4805215
  67.4071698  58.5158092  32.3564830  66.7143495  58.0455072  32.6025561
  68.0232026  58.2896396  32.9306537  67.3956228  58.4125224  32.4773982
  63.0666506  65.7638493  26.9909566  62.8842079  65.7385379  26.1381859
  63.8016175  66.2337431  27.0298475  63.1480570  65.8299855  26.8707485
  66.1312257  62.4823496  33.4991675  66.8552230  62.4676526  33.9856570
  66.2328394  63.1918851  33.0013643  66.2530466  62.5848199  33.4970462
  73.5057207  65.9622580  38.3640622  72.7130188  66.2766092  38.5493242
  73.6206134  66.1774049  37.5261407  73.4052617  66.0406417  38.2678957
  76.1788526  62.6856572  22.6535638  76.2735380  63.4245866  23.1075263
  75.5547369  62.2574047  23.0870202  76.0997556  62.7317892  22.7843785
  74.4341000  65.8642784  33.3025919  75.0079861  65.2270028  33.4574483
  74.3555803  65.8646867  32.4335576  74.5074234  65.7707896  33.1972330
  63.0337416  62.6431994  27.1408633  63.6110919  62.5068444  27.7800878
  62.3351478  62.1867778  27.3954217  63.0158437  62.5554260  27.2730923
  69.7904718  64.2966049  25.3547116  69.5323962  63.4637784  25.3278416
  69.8453201  64.5223662  24.5139617  69.7604496  64.2063821  25.2267253
  74.8705768  56.3994500  25.4551209  74.1662095  55.9103685  25.6135128
  74.9190743  56.4116974  24.5839653  74.7735820  56.3284148  25.3490549
  68.7639430  61.8503812  25.8412011  68.1889022  62.0095980  26.4775972
  68.3875107  61.2139221  25.3780461  68.6242243  61.7801625  25.8666569
  72.4312719  60.3227161  30.7004389  72.0427152  59.8981379  30.0456581
  71.7667417  60.5709311  31.2081416  72.2759647  60.2965882  30.6792257
  58.5096249  61.4943887  23.8556452  58.5956501  61.1175755  24.6369981
  59.1372047  61.1204332  23.3776410  58.6152800  61.3829369  23.9001929
  76.2539081  54.0201790  28.2128374  76.6349592  53.3379961  28.5996248
  75.4502365  53.7311392  28.0304038  76.1915542  53.8768838  28.2432429
  69.4059566  68.0247283  24.0253508  70.0433512  67.7859031  24.5705302
  69.8314637  68.2284442  23.2906669  69.5635732  68.0198293  23.9970666
  64.0972208  70.2635620  27.9087812  64.1376353  70.5350471  27.0807592
  64.6566732  70.7877528  28.3245600  64.1855554  70.3811375  27.8479700
  70.0462381  63.2449573  18.3628398  70.4307533  63.0257280  19.1144943
  69.7974001  64.0712518  18.4929474  70.0664453  63.3347719  18.4929474
  70.2130921  56.5255988  38.0790982  69.8984362  57.2955551  37.8160545
  69.8920853  55.9626244  37.4943209  70.1189840  56.5566257  37.9532332
  71.7881037  68.5019706  25.7047295  71.8620046  68.3394878  26.5589145
  72.6050544  68.6909895  25.4607776  71.9197396  68.5056448  25.7945320
  65.5486794  68.8477569  22.7341738  64.7224912  69.0939306  22.6076017
  65.6098785  68.7689649  23.6003796  65.4360961  68.8722518  22.8430683
  67.7662818  54.9146510  23.6937178  66.8985243  54.9869109  23.7594788
  68.0538022  55.7168588  23.8825153  67.6802566  55.0440657  23.7311945
  76.8895707  55.0624369  32.0248500  77.6349299  54.8734179  31.6111926
  76.4733011  55.5882607  31.4662356  76.9380681  55.1126514  31.8813073
  70.9180368  66.2672195  31.5213899  70.4192062  66.9787962  31.5998787
  71.7280593  66.5872861  31.4832061  70.9636475  66.4199043  31.5270467
  68.2691539  73.4421831  23.5020918  68.0491834  73.1519186  24.2947585
  68.0486061  72.7836786  22.9738830  68.2039133  73.3021540  23.5409826
  67.1808486  65.5295148  25.7676619  66.8921735  64.9032619  26.3022347
  68.0491834  65.4715435  25.8341300  67.2668738  65.4282692  25.8567574
  77.9686384  60.6729931  26.0858601  77.6251150  59.9520266  26.4365851
  78.0679426  60.4643782  25.2436960  77.9328427  60.5354134  26.0130281
  67.3840759  67.1690399  21.6918984  68.1386727  67.5503438  21.9054447
  66.7911372  67.6201542  22.1465681  67.4077473  67.2919226  21.7901863
  69.8447426  59.1253239  36.8176197  69.0347202  59.4311019  36.7066039
  70.3222113  59.8458821  36.9328781  69.7950905  59.2767840  36.8183268
  68.7038986  68.3398960  27.0659100  68.1819739  68.4799252  27.7510965
  69.0913006  67.5809624  27.2561217  68.6842687  68.2484484  27.1960176
  65.6930170  58.3904769  21.1354055  65.4054966  58.0206039  20.3986002
  66.3800638  58.8599624  20.8737759  65.7519067  58.4051738  20.9869130
  70.1305312  65.3702979  22.4640591  69.9348094  65.9777714  21.8700894
  70.3539657  64.6770923  21.9832265  70.1339953  65.3580505  22.3056672
  68.5283842  62.2557717  22.5821459  69.2506493  62.4198875  22.1225265
  68.0491834  62.9767382  22.4760799  68.5647572  62.3855947  22.4987073
  76.4877349  58.5921516  27.9618144  75.6488450  58.6182795  27.7256407
  76.5581716  59.2392251  28.5423491  76.3745743  58.6917642  28.0127261
  66.1791458  64.6615789  31.6875599  66.6912555  64.9400043  31.0384359
  65.8927801  65.4005083  32.0538412  66.2126321  64.8118143  31.6465477
  74.9346627  55.4906893  22.6945760  75.6372980  55.2914641  22.2165718
  74.6690816  54.7182835  23.0014604  74.9993260  55.3469859  22.6691202
  63.2658365  59.1685981  21.9839336  63.3674501  59.9712143  22.3120311
  64.0614251  58.9673317  21.6862416  63.3986270  59.2571880  21.9874691
  69.6975184  56.7542178  31.7476641  69.5058381  56.7697312  32.5976064
  70.5473780  56.9505852  31.7243296  69.7950906  56.7856529  31.8699935
  64.0822097  59.2833160  29.7260457  63.9407588  58.4317100  29.8504965
  64.3662660  59.3261820  28.9022663  64.1029943  59.1632910  29.6228081
  74.2360689  61.1200250  23.8704945  73.9895403  61.0396001  24.7041734
  74.5645812  60.3353718  23.6767473  74.2481933  60.9926515  23.9652469
  76.4686823  64.1279984  33.9114108  76.4634861  63.2559801  33.9156535
  77.1747817  64.3268154  33.4383564  76.5731827  64.0283859  33.8421144
  70.1957716  63.8556968  33.2827929  70.3401092  64.4358176  32.6471039
  70.5433365  64.2333265  33.9877783  70.2685178  63.9977672  33.2926923
  72.3677634  63.0547137  31.0653060  71.6200948  63.2478151  30.6601338
  72.5219159  62.2292356  30.8277181  72.2800061  62.9612248  30.9698466
  69.2685471  72.0459740  30.1488955  69.4175035  71.4862656  29.4962360
  70.0485473  72.1251742  30.5321474  69.4059565  71.9745306  30.1085905
  72.6079411  56.9497687  31.9548464  73.0652025  57.6821662  32.0821256
  72.6835739  56.5264153  32.7135720  72.6870381  56.9954925  32.0849540
  64.8512402  57.1963507  33.0437908  64.3154591  56.5843865  33.3598675
  64.9130167  57.7711643  33.6971574  64.7808035  57.1910435  33.1873334
  77.0806737  50.1287563  25.8242307  77.1990305  50.5864026  25.0909609
  76.9068912  49.3232824  25.5378524  77.0725908  50.0781335  25.6743240
  70.4861789  58.9399791  28.7990288  69.6957863  58.7591251  29.1207624
  70.8822411  58.1626744  28.7820582  70.4278665  58.7987252  28.8442836
  75.8705475  66.5742221  26.5249734  75.1950477  66.3427454  27.0263121
  75.8797851  65.9663404  25.8991839  75.7723979  66.4501147  26.5065886
  72.9999619  61.4160050  33.2813787  72.9358760  62.2770007  33.1533924
  73.1396807  61.0992044  32.4809338  73.0115089  61.4960217  33.1442000
  71.6818713  64.1092190  27.4229990  71.2580962  64.3096689  26.6869008
  71.5063568  63.2621038  27.5354290  71.5929593  64.0140971  27.3303680
  66.9701158  64.6044241  22.8557962  67.1265777  64.5391044  23.7113954
  67.3101751  65.3792794  22.6436642  67.0434393  64.7093439  22.9512556
  73.5080302  63.9802125  21.7251325  74.0495848  63.4772506  22.1889946
  73.8226861  63.9267319  20.9140811  73.6344699  63.8981546  21.6735138
  74.6569572  58.8738429  31.7773626  74.8711541  58.2349344  31.2236980
  74.0403471  59.3184253  31.3481488  74.5974901  58.8448573  31.6324057
  63.5435419  61.7879192  23.1718729  63.9234384  62.2063737  22.5078997
  62.9690784  62.3692647  23.4787573  63.5146744  61.9357050  23.1195470
  76.8208660  60.4827494  32.7156933  76.0085341  60.1753385  32.7970106
  77.2798594  60.0026495  33.2799645  76.7689044  60.3663987  32.8111527
  74.0484300  51.9838365  26.7660969  73.1777858  51.9577086  26.7194278
  74.3024642  51.8115557  25.9486814  73.9577860  51.9548509  26.6381105
  73.9162167  61.8887566  37.4985635  74.3861798  62.5129682  37.8853509
  73.9624047  61.2204541  38.0578850  73.9930043  61.8822246  37.6385707
  71.0733441  53.9944593  28.2234439  70.5571929  53.3024785  28.3486018
  70.5127370  54.6615370  28.1697038  70.9139954  53.9907851  28.2340505
  73.1425674  54.5337553  30.0527292  72.7557427  54.5586585  30.8340822
  72.6558612  53.9679232  29.6001808  73.0138183  54.4533304  30.1015195
  72.8082816  51.4204539  32.3437552  73.4375934  51.9564839  32.0658622
  72.9768679  51.3281898  33.1951117  72.9260611  51.4865901  32.4286080
  72.6096731  56.2075734  34.6163963  73.4370160  55.9360882  34.6722578
  72.6304577  57.0036575  34.9727781  72.7349581  56.2855488  34.6779146
  67.1866221  63.3539596  27.8034224  66.3454227  63.2543471  28.0113118
  67.3956229  64.1235077  28.1548544  67.0930913  63.4531640  27.8861539
  64.6641788  60.9759133  25.6318974  64.2698485  61.0502145  24.8569084
  64.1081905  61.3617080  26.1827336  64.5244600  61.0440908  25.5986634
  76.3006735  53.9540427  25.3122853  76.5056328  53.8862735  26.1579851
  75.9733159  54.7599249  25.2444031  76.2821982  54.0626368  25.4282509
  70.9982886  61.2820996  27.0531821  70.6946023  60.7276984  27.6542229
  70.2962306  61.4613206  26.5659856  70.8499095  61.2265778  27.0701527
  70.0548983  58.5921515  21.6176523  70.3308717  57.8740428  21.2054091
  70.6547652  59.1906435  21.4097629  70.1842247  58.5741886  21.5257284
  69.0601237  68.4970716  31.7603919  68.9521592  68.5072778  32.6265977
  69.2697018  69.3225497  31.5708873  69.0751348  68.6211791  31.8608011
  73.5559503  56.2635033  19.8923118  74.0103250  56.4345593  20.6170963
  74.0299549  55.6503143  19.4920894  73.6927823  56.1985918  19.9396880
  67.0775029  65.7483359  29.2225857  66.4862962  66.3892857  29.1928872
  67.8396052  66.1720976  29.1957156  67.1023289  65.9059197  29.2141004
  67.4735651  56.9085356  29.8893874  67.9337133  56.9824286  30.6268998
  67.5191758  57.7066611  29.5393696  67.5486207  57.0379504  29.9466631
  69.1219001  57.5752051  34.4565901  68.7304566  56.9285398  34.8921679
  69.2904864  58.1663487  35.0760157  69.0889912  57.5666319  34.6128607
  70.8972523  62.9677567  20.9968125  71.6414568  63.3551843  21.2351075
  71.0433219  62.1234992  21.1608613  71.0283108  62.9008040  21.0562095
  72.8152099  54.7627826  26.0299987  71.9688144  54.9350634  25.9041337
  72.8123231  53.9577170  26.3665815  72.6899249  54.6688855  26.0611114
  73.8850399  58.5403040  26.8962045  73.4110353  58.0144802  27.4067356
  74.2568535  57.9932513  26.3276906  73.8700288  58.3819037  26.8877192
  64.2623429  60.5374547  32.2645591  65.1249042  60.4370256  32.1782920
  63.9315212  59.9569256  31.7031163  64.3408626  60.4366174  32.1690996
  75.8133899  59.4339595  19.9587799  75.2856917  59.5168339  19.2693507
  76.2729607  60.1757466  19.9552443  75.8035749  59.5560257  19.8562494
  67.6225215  59.3616996  28.9256009  66.9978285  59.3735388  28.3181961
  67.2870810  59.8377171  29.5747249  67.4810707  59.4335513  28.9312577
  67.8066964  57.7042115  14.9828694  67.4579768  58.3561840  15.4460243
  67.3263410  57.6899228  14.2552565  67.6837208  57.7985168  14.9439785
  64.3350891  67.4217456  30.3659773  63.8050815  66.7309895  30.4154748
  64.6075984  67.4127642  29.5372482  64.2975613  67.3184588  30.2507189
  74.5357136  64.8640701  30.3398145  73.9214129  64.3198751  30.6346780
  75.0524421  64.3504937  29.8603961  74.5212799  64.7077110  30.3122373
  73.7753433  65.9344971  28.0742443  73.3481042  65.3094690  27.6407879
  73.7678378  65.6519893  28.9001450  73.7112575  65.7997752  28.1322271
  66.8915961  60.9710144  31.1430877  67.0509447  60.2153468  31.5482599
  66.7108854  61.5201083  31.7971615  66.8881320  60.9403958  31.2993583
  74.8336264  53.1371380  31.6981667  74.3376825  53.3335054  31.0073233
  75.5905326  53.5364048  31.5270468  74.8723088  53.2249113  31.5701803
  72.1039143  56.8113725  28.2884977  72.1281630  56.2773838  27.5997757
  72.3550617  56.3031034  28.9510568  72.1449062  56.6574629  28.2849622
  59.6146733  64.0945220  27.7228121  59.5090182  64.0492065  26.8580205
  58.8646953  64.4399001  28.0042406  59.4882336  64.1386129  27.6365451
  68.3840465  55.5384544  27.6690722  68.4238837  56.0393750  28.3825429
  67.5590130  55.6294937  27.3996645  68.2679991  55.6266360  27.7341260
  70.5670078  65.1045284  35.7711016  69.7165709  65.2416998  35.9068661
  70.7298206  64.3709062  36.2158718  70.4653942  65.0159385  35.8566615
  69.8054829  62.0545053  29.9664621  68.9746758  62.2218871  29.7599869
  69.7506346  61.6781004  30.7513506  69.6744244  62.0234785  30.0513149
  67.6138612  55.5453946  35.6021031  68.2391315  55.0016079  35.8750464
  67.1589092  55.0648864  35.0328822  67.6386873  55.3943428  35.5582625
  68.1790873  60.3300645  20.4954738  68.3193834  60.8273109  21.1983380
  68.6773405  59.6286939  20.6368952  68.2731954  60.3002624  20.6206317
  68.2091095  61.1967756  17.8247315  68.8436174  61.7928181  17.7596777
  68.2916706  60.8971214  18.6393185  68.3147646  61.2408664  17.9350402
  69.7870078  57.1281731  17.7992757  70.1085919  56.6484814  17.1452019
  70.0497022  57.9381378  17.6083569  69.8736103  57.1771629  17.6748249
  73.0167051  68.1500606  31.3191573  72.5092142  68.7036453  31.7632204
  72.7193697  68.2108896  30.5010348  72.8971936  68.2406917  31.2640030
  75.1829233  56.5153925  30.1616236  75.6084304  56.0626452  29.5499763
  74.5686226  55.9613996  30.4381024  75.1557878  56.3667902  30.1121261
  64.7144083  63.3935597  21.0936861  65.2236312  63.9900104  21.4748167
  65.1878355  63.1261570  20.4113281  64.8587459  63.4421412  21.0491384
  73.6223456  52.9869025  23.5706813  72.9791774  52.8366672  24.1391952
  73.2822863  52.7411370  22.8055918  73.4768533  52.9281148  23.5409828
  78.3750930  57.3984336  25.9027195  78.7278540  56.9714059  26.5772994
  77.5165731  57.3135179  26.0328271  78.3000374  57.3229076  26.0222205
  67.0734615  60.0291855  23.9610042  66.3546604  60.4455988  24.2282905
  67.4446977  60.5946094  23.4101680  67.0226546  60.1741137  23.9192849
  76.3734195  60.6619704  29.8512037  76.3532123  60.4802999  30.7046816
  76.4213396  61.5331723  29.8271621  76.3768836  60.7636243  29.9735332
  74.3180525  67.2506896  35.7760514  74.2776380  66.6056573  35.1905670
  75.1303844  67.1943514  36.0885926  74.4323679  67.1465863  35.7357463
  72.8481189  59.0689855  19.2983421  72.2546028  59.3906852  18.7467988
  72.8856467  58.2230951  19.0904527  72.7655578  58.9914184  19.1866192
  75.7239006  59.0269360  22.7285171  75.4952699  59.0502061  21.8863529
  75.9837082  58.2026827  22.8480182  75.7285194  58.9085440  22.6210369
  70.0058234  60.8803833  32.3310271  69.4937137  60.2725016  32.6895303
  69.8337730  61.5960425  32.7984247  69.9047871  60.8967132  32.4526495
  64.8523949  59.3241408  34.9812633  64.6826539  59.9842783  34.4360840
  64.4089899  59.5347969  35.7025122  64.7623282  59.4527390  35.0074263
  68.7783768  57.5645906  24.0239367  69.2541134  57.9262986  23.3889548
  68.2772368  58.2202374  24.3039510  68.7749127  57.7140095  23.9716108
  73.8827304  58.8028077  34.7712527  74.4398735  58.5741887  34.1390992
  73.5588369  59.5633743  34.4947739  73.9173715  58.8811914  34.6369024
  61.7526013  62.2288274  30.2401123  61.2052733  61.5588919  30.3581991
  62.5418391  61.8618122  30.3044590  61.7878197  62.0753260  30.2669824
  71.6010422  61.8895731  35.7364534  72.3521749  62.2047408  36.0504088
  71.7932998  61.6874902  34.9098456  71.7401836  61.9063113  35.6607930
  70.8210421  59.7087106  17.3912751  71.2009386  59.7266735  16.6063866
  70.0803017  60.1541095  17.2703598  70.7679259  59.7768880  17.2576319
  78.4495712  58.0169297  22.9788330  78.4489938  57.8617954  23.8372606
  78.2451892  58.8632284  22.9229715  78.4195490  58.1189918  23.0976269
  60.5112983  61.4409081  27.3947146  60.3334744  60.9885690  28.1202062
  60.2232005  62.2435243  27.5785624  60.4425936  61.4931639  27.5290649
  76.1736564  62.6966799  26.6324536  76.6690229  61.9789794  26.5928557
  75.3636340  62.3937597  26.5179023  76.1280457  62.5464445  26.6098262
  62.2485453  63.9736805  24.5068905  61.3830972  63.9622496  24.3951676
  62.3484268  63.7867028  25.3540044  62.1359620  63.9442866  24.6157850
  78.2388383  65.4470486  29.3201665  78.6643454  64.9244908  28.7672090
  77.8745303  66.0451324  28.7990288  78.2474985  65.4580713  29.1610675
  67.8742462  73.7434704  28.0799011  68.1889021  74.5571092  28.0876792
  68.2835876  73.3584923  28.7481170  67.9810560  73.8063406  28.1803102
  74.8266982  69.1604751  25.6502823  75.2978160  69.8745013  25.8192808
  75.1627161  68.5603501  26.1862692  74.9462097  69.1776215  25.7535199
  71.7436477  53.9332221  32.6060917  71.8764383  53.1363215  32.9341893
  72.1281630  54.4598624  33.1859193  71.8192806  53.8932138  32.7404420
  75.4640928  68.9522685  32.4130515  74.9161874  68.3280568  32.1450581
  75.9253957  69.1416957  31.6974595  75.4508138  68.8881735  32.2680946
  74.8168832  50.8562547  29.2042011  74.0114796  50.7460277  29.5209849
  74.6875568  50.9575003  28.3471877  74.6788965  50.8546217  29.1250051
  78.2734793  57.0208039  29.7981708  77.6897782  57.5217246  29.3859275
  78.5939087  56.5137595  29.1646031  78.2347968  57.0199874  29.6440215
  70.8129592  55.9348634  20.0740382  71.6345286  56.1046947  19.8322077
  70.3499243  56.0895895  19.3506680  70.8660754  55.9830367  19.9312027
  69.4024924  53.9291396  30.8538811  69.9469337  53.5882523  31.4443153
  69.4561860  54.7876858  30.9960096  69.4914043  54.0046656  30.9620685
  65.2155483  67.6907812  27.7277619  65.8200340  67.6503646  27.0991440
  65.0082795  68.5378964  27.7581675  65.2744380  67.8095815  27.6393736
  60.4506765  66.6742430  27.5976542  60.3531043  65.8638701  27.9066599
  61.2335635  66.6534223  27.2122810  60.5522901  66.5509520  27.5863405
  36.3059715   6.0309859  13.0290570  36.9497171   6.4723023  13.4186729
  36.6315971   5.2263285  12.9420829  36.4491544   5.9775054  13.0736047
  40.9519090   1.2565222  21.0950241  41.0402436   1.0691362  21.9428452
  41.3808803   0.6102651  20.6955088  41.0281193   1.1328230  21.1621993
  38.5189550   0.5396382  20.0767904  37.9560385   0.1268992  20.6007565
  39.2810574   0.4649287  20.4961047  38.5483999   0.4673782  20.2160904
  41.0639150   0.6874241  23.7594025  41.8479566   0.8005089  24.1249767
  40.8635744  -0.1384622  23.9552711  41.1505175   0.5820960  23.8428411
  41.2209543   2.5984343  17.4060481  40.4224789   2.3583843  17.6634349
  41.6695555   2.6498736  18.1527528  41.1684154   2.5706734  17.5545405
  36.0438544   2.4281947  17.0829002  36.1928108   1.8684863  16.4302407
  36.8238547   2.5073949  17.4661521  36.1812638   2.3567513  17.0425951
  38.5691845   2.5996590  18.3613493  38.4935516   1.9305401  18.9164281
  38.4981704   3.3014379  18.8754159  38.5472452   2.6041498  18.5190341
  37.9583479   6.0064910  16.8191494  38.4479410   5.3075699  16.6367158
  37.3867712   5.7088780  17.4067551  37.9468009   5.8591134  16.8792535
  35.8354310  -1.1207076  18.6943966  35.7274665  -1.1105014  19.5606024
  36.0450091  -0.2952296  18.5048920  35.8504421  -0.9966001  18.7948058
  43.6117618   1.5814878  13.5897928  43.4137307   2.0705692  12.8954139
  42.9905329   1.7856119  14.1682061  43.4905183   1.6831416  13.5721151
  39.7920124  -1.4677187  18.2531620  39.2845215  -0.9141340  18.6972251
  39.4946770  -1.4068897  17.4350395  39.6725009  -1.3770876  18.1980077
  39.0362609   3.4647371  15.1588627  38.8128264   2.7066201  15.5272653
  38.5472452   3.4945393  14.4369067  38.9306058   3.3569596  15.1065368
  41.0506360   2.8437915  13.3649328  40.6522643   2.9540185  12.5970148
  40.4357580   3.0519981  13.9475888  40.9005249   2.8911483  13.3380627
  34.6495536   4.1256911  15.0139058  34.9642095   4.9393300  15.0216839
  35.0588949   3.7407130  15.6821217  34.7563634   4.1885614  15.1143149
  43.6897040   1.1528271  24.7634942  43.7994005   0.3636832  25.1191689
  44.0187937   1.0634208  23.9609280  43.7549446   1.0234124  24.6977332
  41.8052328   0.3395965  15.8779903  42.6250702   0.1958931  16.1396198
  41.5246406   0.9642164  16.4196341  41.8849071   0.4106317  15.9967843
  51.4765663   7.0836468  13.5975710  50.6203559   7.2444966  13.6484827
  51.5233317   6.2128532  13.6180771  51.3564775   6.9787269  13.6081776
  45.8606803  16.6199185   9.3612942  45.1089702  16.2414724   9.1328987
  46.3092815  16.6517619   8.6131752  45.8156470  16.5684793   9.2170444
  54.7859380  13.3522993  23.2036166  55.4926147  12.8575024  23.3323101
  54.9747315  13.7932075  22.4738824  54.9187285  13.3441344  23.1145212
  51.3131763  17.0424555   4.7898489  50.9783131  17.7201477   4.3542711
  51.8258633  16.6529866   4.2015360  51.3397344  17.0849133   4.6385280
  50.8536054  18.9938824  10.7309600  51.2375433  19.5625722  10.1914376
  50.7895195  18.2688334  10.2515416  50.9009481  18.9714287  10.5803463
  54.3217484   9.1428512  16.2407362  54.8673444   9.8213598  16.3001331
  54.2634361   9.0015972  15.3808943  54.3933399   9.2220513  16.1219422
  47.4391559  16.6317578  11.6275714  47.5401922  15.8217932  11.9372842
  46.8433304  16.5374524  10.9975393  47.3664098  16.4982606  11.5801953
  56.0982553  10.5713119   7.1141090  55.9822079  11.3220805   7.5433228
  56.8938440  10.3137072   7.3637177  56.1987142  10.6447966   7.2145181
  47.2792299  21.5495167  13.0290570  47.9229754  21.9908331  13.4186729
  47.6048554  20.7448593  12.9420829  47.4224127  21.4960362  13.0736047
  40.6356603  12.6537864  11.2528048  40.4006788  11.8205517  11.1460317
  40.7742244  12.9342530  10.4389249  40.6212266  12.5721368  11.1170403
  42.9346691   4.8223595  14.1512356  42.3151722   4.2316242  13.9822370
  42.8330554   5.4135030  13.5176679  42.8284366   4.8227677  14.0317345
  47.9812878  14.5607142   8.4010432  48.3028719  15.1012349   7.7971740
  48.6284975  13.9903913   8.5332722  48.1238934  14.5566317   8.3317467
  50.0314586   6.5623137   8.4844819  50.7294751   6.7411264   8.9766282
  50.3466919   6.0393476   7.8615208  50.1809924   6.5116909   8.4646829
  42.6615824   8.3675876  16.3955924  42.5374521   8.9538322  17.0305743
  43.3134108   7.8736072  16.6968199  42.7389473   8.3814681  16.5341854
  50.2202522  12.9493582   8.4724610  50.6596157  12.3410682   8.9179383
  50.0707185  12.5700955   7.7010075  50.2623988  12.8032053   8.4243777
  47.6874165  11.5437593  15.6743436  48.3323167  11.0510037  15.3554384
  47.9275942  11.6862380  16.5009514  47.8184750  11.4915036  15.7492969
  50.2260256  14.3892499  15.3250328  50.5083499  13.5943905  15.1037084
  50.9546417  14.8673087  15.3455389  50.3749820  14.3427096  15.2953343
  48.2041450   1.9315533  12.5666093  47.8744780   2.3826677  11.8969792
  47.5286452   1.8531697  13.1139100  48.0551886   1.9866668  12.5489317
  53.8211858  11.3020763   5.4255379  53.7363153  12.1581730   5.5704948
  54.3096242  11.0265087   6.0937538  53.8800756  11.3878084   5.5457461
  54.7530292   7.9205557   6.9253114  54.2241763   8.1365191   7.5850421
  55.2755312   8.6141696   6.8454084  54.7518745   8.0548694   7.0108714
  60.2078345  13.4951862  12.2986159  59.3776048  13.7062505  12.4619575
  60.1587597  12.6688916  12.0228443  60.0785080  13.4041468  12.2823524
  42.1973928  17.5323535  12.5284254  41.7141506  18.2574025  12.5043838
  43.0097246  17.8299665  12.6394412  42.2464676  17.6825889  12.5411533
  48.2688082  16.3255716  15.1334068  47.7515024  15.9663131  14.5295377
  48.9662473  15.8017890  15.1440135  48.2953663  16.1953404  15.0464327
  51.9251674  16.7750530  21.0950241  52.0135020  16.5876670  21.9428452
  52.3541387  16.1287959  20.6955088  52.0013776  16.6513537  21.1621993
  49.4922134  16.0581690  20.0767904  48.9292969  15.6454300  20.6007565
  50.2543157  15.9834595  20.4961047  49.5216582  15.9859090  20.2160904
  45.0518125  18.0479711  12.6804534  45.7538705  17.5331700  12.7377290
  44.9715608  18.3753862  13.4851409  45.1441886  18.0193937  12.8077326
  59.7032303   6.1422262  16.0936580  58.8660724   6.2124449  16.3284175
  59.6720534   6.1446757  15.2210883  59.5750585   6.1532489  15.9996128
  46.0997032   8.2855298  21.8084949  46.2717536   8.1761192  22.6570230
  46.6366389   8.9309703  21.5716141  46.2042036   8.3647299  21.8990046
  44.3768901  14.2386063  12.1890142  45.2157800  14.4708996  12.2363903
  44.4080670  13.3690374  12.1197177  44.5050618  14.1443009  12.1854787
  45.0021604  14.6586938  16.4903447  45.5419829  14.5158069  17.1606820
  44.3191550  15.0583689  16.8587474  44.9813758  14.6966609  16.6437869
  54.4262489  10.3377939  11.6848472  55.1820004  10.7709453  11.7237380
  54.5324813   9.6882708  12.2583108  54.5532659  10.3055423  11.7746497
  57.4642660  14.1651216  12.4350875  57.0277892  14.1687958  13.1909846
  57.1305575  14.8456715  12.0030452  57.3505280  14.2663672  12.4831707
  52.0371733  16.2059549  23.7594025  52.8212150  16.3190397  24.1249767
  51.8368328  15.3800686  23.9552711  52.1237759  16.1006268  23.8428411
  45.1557355   4.4165607  19.2904877  44.4629152   3.9462587  19.5365608
  45.7717682   4.1903912  19.8646584  45.1441885   4.3132739  19.4114029
  52.1942127  18.1169651  17.4060481  51.3957372  17.8769151  17.6634349
  52.6428138  18.1684044  18.1527528  52.1416738  18.0892042  17.5545405
  60.5987006  10.8832136  11.3270512  61.2603440  10.3222804  11.2266420
  59.9578418  10.3884167  11.6523203  60.6015873  10.7268545  11.3602852
  51.4863814  14.1802267   3.6351435  51.9014962  13.8487291   2.9435931
  50.6555743  13.9471169   3.5071572  51.4251822  14.0973523   3.5142283
  40.8152162  11.6646008  13.9249613  40.6327736  11.6392894  13.0721905
  41.5501831  12.1344946  13.9638522  40.8966226  11.7307370  13.8047532
  56.8851837  11.8997518  11.0682501  57.1207426  12.0442717  10.2409351
  57.0341400  12.6639926  11.4614014  56.9417640  12.0336573  11.0046105
  43.8797914   8.3831011  20.4331722  44.6037886   8.3684042  20.9196617
  43.9814051   9.0926366  19.9353690  44.0016123   8.4855714  20.4310509
  58.7142293  10.7399184   8.9052105  59.0450510  11.2726824   8.2992199
  59.2875381  10.7938072   9.5614056  58.8475973  10.8268753   8.9129886
  51.2542864  11.8630096  25.2980669  50.4615844  12.1773608  25.4833288
  51.3691791  12.0781564  24.4601453  51.1538274  11.9413932  25.2019004
  53.9274182   8.5864087   9.5875685  54.0221037   9.3253381  10.0415310
  53.3033026   8.1581562  10.0210249  53.8483213   8.6325407   9.7183832
  52.1826656  11.7650299  20.2365966  52.7565518  11.1277544  20.3914529
  52.1041460  11.7654382  19.3675623  52.2559891  11.6715411  20.1312376
  40.7823073   8.5439509  14.0748680  41.3596575   8.4075960  14.7140925
  40.0837135   8.0875293  14.3294264  40.7644094   8.4561775  14.2070969
  47.5390375  10.1973565  12.2887163  47.2809619   9.3645299  12.2618462
  47.5938858  10.4231178  11.4479663  47.5090153  10.1071336  12.1607300
  46.5125087   7.7511327  12.7752058  45.9374678   7.9103495  13.4116019
  46.1360763   7.1146736  12.3120508  46.3727899   7.6809140  12.8006616
  50.1798376   6.2234676  17.6344436  49.7912809   5.7988894  16.9796627
  49.5153074   6.4716826  18.1421463  50.0245304   6.1973397  17.6132304
  51.2837314  10.4533281   5.8321243  52.0977953  10.7448174   5.7204014
  51.2196455   9.7993143   5.2579536  51.3940053  10.3998476   5.7310080
  57.5046804  13.1359277  20.2450819  57.2685442  12.3047342  20.1262879
  58.1490033  13.0844884  20.8305663  57.5641475  13.0056965  20.3136712
  47.1545222  13.9254798  10.9593555  47.7919169  13.6866546  11.5045349
  47.5800294  14.1291957  10.2246716  47.3121389  13.9205809  10.9310713
  41.8457865  16.1643135  14.8427859  41.8862010  16.4357986  14.0147639
  42.4052389  16.6885043  15.2585647  41.9341211  16.2818890  14.7819747
  47.9616578   2.4263503  25.0131029  47.6470019   3.1963066  24.7500592
  47.6406510   1.8633759  24.4283256  47.8675497   2.4573772  24.8872379
  58.5283225  12.9203726  16.3079113  58.2229042  13.6531783  16.6692429
  57.8089440  12.5141655  16.0271899  58.3770567  12.9685459  16.3192250
  49.5366694  14.4027221  12.6387341  49.6105702  14.2402393  13.4929191
  50.3536201  14.5917411  12.3947823  49.6683053  14.4063963  12.7285367
  64.2285017   9.5596727  15.6347457  64.1609517   9.5792686  14.7650044
  64.2140679  10.4027054  15.8603128  64.2163773   9.6870461  15.5399934
  43.2972451  14.7485084   9.6681785  42.4710569  14.9946821   9.5416064
  43.3584442  14.6697165  10.5343843  43.1846618  14.7730033   9.7770729
  48.0771280  17.3661964   7.3700815  48.3669578  16.9750945   6.6460041
  48.8074761  17.5478669   7.8106090  48.2278164  17.3355778   7.3283622
  62.0143634   8.3341113  13.9094052  62.5651556   7.7009182  14.1491144
  61.9987750   8.8656506  14.6009556  62.0928831   8.3190061  14.0472910
  48.6666025  12.1679710  18.4553945  48.1677719  12.8795478  18.5338834
  49.4766249  12.4880377  18.4172108  48.7122132  12.3206559  18.4610514
  46.0177196  19.3429347  10.4360965  45.7977491  19.0526701  11.2287632
  45.7971718  18.6844302   9.9078877  45.9524790  19.2029055  10.4749873
  44.9294143  11.4302663  12.7016666  44.6407391  10.8040134  13.2362394
  45.7977491  11.3722950  12.7681347  45.0154395  11.3290207  12.7907621
  55.7172041   6.5737446  13.0198648  55.3736806   5.8527782  13.3705898
  55.8165083   6.3651298  12.1777006  55.6814083   6.4361650  12.9470328
  48.1845151  20.7158736   9.2191657  48.8369209  20.1835179   9.4482683
  47.4870760  20.3627389   9.6059531  48.1775869  20.5848259   9.3103825
  45.1326416  13.0697914   8.6259031  45.8872384  13.4510953   8.8394494
  44.5397029  13.5209058   9.0805728  45.1563130  13.1926741   8.7241910
  56.1785070  13.0363150   8.5622636  56.7443102  13.6956360   8.4781179
  55.5312973  13.3812849   9.0339038  56.1663826  13.1845092   8.6195393
  47.5933083   5.0260754  23.7516244  46.7832859   5.3318534  23.6406086
  48.0707770   5.7466337  23.8668828  47.5436562   5.1775356  23.7523315
  46.4524643  14.2406475  13.9999147  45.9305396  14.3806767  14.6851011
  46.8398663  13.4817140  14.1901264  46.4328344  14.1491999  14.1300223
  52.6491648  15.9801935   7.9859715  52.4078324  15.2469795   7.5786780
  52.8292981  16.5288792   7.3326049  52.6399272  15.9524326   7.8289938
  47.8790968  11.2710494   9.3980638  47.6833751  11.8785229   8.8040941
  48.1025314  10.5778438   8.9172312  47.8825609  11.2588020   9.2396719
  46.2769498   8.1565232   9.5161506  46.9992150   8.3206390   9.0565312
  45.7977491   8.8774897   9.4100846  46.3133229   8.2863462   9.4327120
  54.2363006   4.4929031  14.8958191  53.3974107   4.5190310  14.6596454
  54.3067373   5.1399767  15.4763538  54.1231399   4.5925157  14.9467308
  43.9277115  10.5623305  18.6215646  44.4398212  10.8407558  17.9724406
  43.6413458  11.3012599  18.9878459  43.9611978  10.7125658  18.5805524
  58.1120530   9.6997018  12.1819433  58.0254504   9.8552444  13.0354212
  57.6571010  10.3435093  11.8078838  58.0323786   9.8172773  12.2526540
  47.4460840   2.6549693  18.6816688  47.2544037   2.6704828  19.5316111
  48.2959436   2.8513368  18.6583342  47.5436562   2.6864045  18.8039982
  41.8307753   5.1840675  16.6600504  41.6893245   4.3324615  16.7845012
  42.1148317   5.2269335  15.8362710  41.8515600   5.0640425  16.5568128
  51.9846346   7.0207765  10.8044992  51.7381060   6.9403516  11.6381781
  52.3131469   6.2361233  10.6107520  51.9967589   6.8934030  10.8992515
  55.8794395  13.7291124  14.5931774  55.7408754  14.4272170  15.0980516
  55.0994393  13.5739781  14.2367955  55.7437621  13.8091291  14.6158048
  54.2172480  10.0287500  20.8454155  54.2120518   9.1567316  20.8496582
  54.9233474  10.2275669  20.3723611  54.3217484   9.9291374  20.7761191
  47.9443373   9.7564484  20.2167975  48.0886749  10.3365692  19.5811085
  48.2919022  10.1340780  20.9217830  48.0170834   9.8985188  20.2266970
  50.1163290   8.9554652  17.9993107  49.3686604   9.1485666  17.5941385
  50.2704816   8.1299872  17.7617228  50.0285718   8.8619763  17.9038513
  47.0171128  17.9467255  17.0829002  47.1660692  17.3870171  16.4302407
  47.7971130  18.0259257  17.4661521  47.1545222  17.8752821  17.0425951
  49.5424429  18.1181898  18.3613493  49.4668100  17.4490709  18.9164281
  49.4714288  18.8199686  18.8754159  49.5205036  18.1226806  18.5190341
  50.3565067   2.8505203  18.8888511  50.8137682   3.5829177  19.0161303
  50.4321396   2.4271668  19.6475766  50.4356037   2.8962441  19.0189587
  42.5998059   3.0971022  19.9777954  42.0640248   2.4851381  20.2938722
  42.6615823   3.6719158  20.6311621  42.5293691   3.0917950  20.1213381
  50.1994676  16.6382897   9.1937099  50.9644567  16.3692541   8.8719763
  50.0972766  16.1532908   9.9107162  50.2976171  16.5272462   9.2516927
  48.2347445   4.8407307  15.7330335  47.4443520   4.6598767  16.0547671
  48.6308068   4.0634259  15.7160629  48.1764322   4.6994768  15.7782883
  53.6191132  12.4749737  13.4589781  52.9436133  12.2434969  13.9603168
  53.6283508  11.8670920  12.8331886  53.5209636  12.3508662  13.4405933
  50.7485276   7.3167566  20.2153834  50.6844417   8.1777522  20.0873970
  50.8882463   6.9999559  19.4149385  50.7600746   7.3967732  20.0782046
  55.6207866  15.3314869   5.6899959  55.7027704  16.1381855   5.3661409
  56.1057608  15.3510828   6.4140732  55.7045024  15.4535532   5.7486857
  49.4304370  10.0099705  14.3570037  49.0066619  10.2104204  13.6209055
  49.2549225   9.1628553  14.4694336  49.3415250   9.9148487  14.2643727
  48.9316063  21.5250218  16.8191494  49.4211993  20.8261007  16.6367158
  48.3600295  21.2274088  17.4067551  48.9200593  21.3776442  16.8792535
  44.7186815  10.5051757   9.7898009  44.8751434  10.4398559  10.6454001
  45.0587408  11.2800309   9.5776689  44.7920049  10.6100955   9.8852603
  51.2565959   9.8809640   8.6591372  51.7981505   9.3780021   9.1229993
  51.5712518   9.8274835   7.8480858  51.3830356   9.7989061   8.6075184
  55.1283067  14.0912287  25.7718284  55.9417932  13.8197436  25.9323417
  54.9678033  13.7919827  24.9678480  55.2253015  14.0067213  25.6763690
  49.4252409  15.2726992   5.9431400  49.4945229  14.4141530   6.0824401
  50.2040864  15.4898873   5.6150425  49.5505259  15.1779856   5.9148558
  52.4055229   4.7745945  18.7113673  52.6197198   4.1356859  18.1577027
  51.7889128   5.2191768  18.2821534  52.3460558   4.7456088  18.5664104
  53.8159896  17.6964693  10.1567894  53.4239688  17.3931408   9.4390760
  53.9712969  18.5333783   9.9672847  53.7813486  17.7748530  10.0224391
  41.2921076   7.6886707  10.1058776  41.6720041   8.1071252   9.4419044
  40.7176441   8.2700163  10.4127620  41.2632401   7.8364566  10.0535517
  54.5694317   6.3835010  19.6496980  53.7570998   6.0760900  19.7310153
  55.0284251   5.9034010  20.2139692  54.5174701   6.2671502  19.7451574
  53.9799571  14.2614682  10.0973924  53.6214226  14.4329325  10.8737957
  53.4938282  14.7227887   9.5401923  53.8558268  14.3553653  10.1299193
  51.6647824   7.7895081  24.4325682  52.1347455   8.4137198  24.8193556
  51.7109704   7.1212057  24.9918897  51.7415700   7.7829762  24.5725754
  55.1404311  15.1518578  21.0441125  55.7784031  14.6578773  20.7103581
  54.4978402  15.0795978  20.4593352  55.1398537  15.0677586  20.9083480
  56.8661311   7.0007724  15.6107041  56.4388919   6.9134072  14.8555140
  56.2287364   7.1085499  16.1961885  56.7090918   7.0040384  15.5852482
  55.1958567  15.8438386  17.6846482  55.9850945  15.4927451  17.8048563
  55.3702165  16.6574774  17.4223116  55.3378849  15.9124243  17.6634350
  44.9351878   9.2547112  14.7374271  44.0939884   9.1550986  14.9453164
  45.1441886  10.0242592  15.0888591  44.8416570   9.3539155  14.8201586
  42.4127445   6.8766649  12.5659021  42.0184142   6.9509661  11.7909131
  41.8567561   7.2624595  13.1167383  42.2730257   6.9448423  12.5326681
  48.7468542   7.1828511  13.9871868  48.4431680   6.6284499  14.5882276
  48.0447963   7.3620721  13.4999902  48.5984752   7.1273293  14.0041574
  46.8086893  14.3978232  18.6943966  46.7007248  14.4080294  19.5606024
  47.0182675  15.2233012  18.5048920  46.8237005  14.5219306  18.7948058
  44.8260685  11.6490874  16.1565904  44.2348619  12.2900372  16.1268919
  45.5881709  12.0728491  16.1297203  44.8508946  11.8066712  16.1481051
  45.2221308   2.8092872  16.8233921  45.6822790   2.8831801  17.5609045
  45.2677415   3.6074126  16.4733743  45.2971864   2.9387019  16.8806678
  46.8704658   3.4759567  21.3905948  46.4790223   2.8292914  21.8261726
  47.0390521   4.0671002  22.0100204  46.8375568   3.4673835  21.5468654
  60.9451107  11.4796644  17.1543182  61.0034231  11.9283292  17.9003158
  60.3117575  11.8895457  16.7173262  60.8602402  11.6070378  17.1995730
  54.5850202  17.1000186  13.5897928  54.3869890  17.5891000  12.8954139
  53.9637913  17.3041427  14.1682061  54.4637766  17.2016724  13.5721151
  48.6458180   8.8685082   7.9308172  49.3900225   9.2559359   8.1691122
  48.7918876   8.0242508   8.0948660  48.7768765   8.8015555   7.9902142
  51.6336056   4.4410556  13.8302092  51.1596010   3.9152318  14.3407403
  52.0054192   3.8940029  13.2616953  51.6185945   4.2826552  13.8217239
  42.0109086   6.4382062  19.1985637  42.8734699   6.3377772  19.1122967
  41.6800869   5.8576772  18.6371210  42.0894282   6.3373689  19.1031043
  57.8972786   9.5012931  15.2408872  57.6571009   8.6619347  15.2451299
  58.3764794   9.5813098  15.9649646  57.9324970   9.3894331  15.3483674
  59.8977973   6.2814389  13.1938131  59.6587743   6.2410223  12.3558916
  60.0611875   7.1285541  13.3203852  59.8868277   6.4006474  13.0891613
  56.5024004  10.6664338  19.1243176  57.2258202  10.2136864  18.9454196
  56.2373966  10.9469004  18.3415504  56.5705277  10.6415306  18.9821892
  45.3710872   5.2624511  15.8596056  44.7463942   5.2742903  15.2522008
  45.0356467   5.7384687  16.5087296  45.2296364   5.3343028  15.8652624
  42.0836548  13.3224972  17.2999820  41.5536472  12.6317410  17.3494795
  42.3561641  13.3135157  16.4712528  42.0461270  13.2192103  17.1847236
  53.1156638  13.9050674   6.0237502  53.8390837  14.3708787   5.8802076
  52.6757229  13.9724284   5.2735099  53.1572330  13.9834511   5.8922284
  52.2842793  10.7648216  17.2738191  51.6699786  10.2206266  17.5686827
  52.8010078  10.2512453  16.7944008  52.2698456  10.6084625  17.2462420
  51.5239090  11.8352486  15.0082490  51.0966698  11.2102205  14.5747925
  51.5164035  11.5527408  15.8341497  51.4598231  11.7005267  15.0662318
  44.6401617   6.8717659  18.0770924  44.7995104   6.1160983  18.4822646
  44.4594511   7.4208599  18.7311662  44.6366976   6.8411473  18.2333630
  49.8524800   2.7121241  15.2225024  49.8767287   2.1781353  14.5337804
  50.1036274   2.2038550  15.8850615  49.8934719   2.5582145  15.2189669
  37.3632390   9.9952736  14.6568168  37.2575839   9.9499580  13.7920252
  36.6132610  10.3406516  14.9382453  37.2367993  10.0393644  14.5705498
  46.1326122   1.4392059  14.6030768  46.1724494   1.9401266  15.3165476
  45.3075787   1.5302453  14.3336691  46.0165648   1.5273875  14.6681307
  48.3155735  11.0052799  22.7051063  47.4651366  11.1424513  22.8408708
  48.4783863  10.2716577  23.1498765  48.2139599  10.9166900  22.7906662
  47.5540486   7.9552569  16.9004667  46.7232415   8.1226387  16.6939916
  47.4992003   7.5788520  17.6853553  47.4229900   7.9242300  16.9853196
  45.3624269   1.4461462  22.5361078  45.9876972   0.9023595  22.8090510
  44.9074749   0.9656379  21.9668868  45.3872529   1.2950943  22.4922672
  58.9359318   9.6290749  17.6273726  59.5277158  10.2687999  17.6591924
  59.3718312   8.9313785  17.9165793  59.0877749   9.6209099  17.6754559
  50.7652707  14.0508121  18.2531620  50.2577799  14.6043968  18.6972251
  50.4679354  14.1116411  17.4350395  50.6457592  14.1414432  18.1980077
  53.3760488  17.9671379   6.1835564  52.6589797  17.7932241   5.7182801
  54.0267225  17.7323951   5.6511050  53.3662338  17.9067171   6.0364781
  55.9608459   6.8435967   9.9276869  55.2899649   7.3865670   9.7989934
  56.6548209   7.3130823   9.6858563  55.9637326   6.9934239   9.8732396
  50.0095193  18.9832679  15.1588627  49.7860847  18.2251509  15.5272653
  49.5205036  19.0130701  14.4369067  49.9038642  18.8754904  15.1065368
  44.8220271   5.9299371  10.8950088  44.1032261   6.3463503  11.1622952
  45.1932634   6.4953609  10.3441727  44.7712203   6.0748652  10.8532895
  54.1219852   6.5627220  16.7852084  54.1017780   6.3810515  17.6386863
  54.1699053   7.4339238  16.7611668  54.1254493   6.6643758  16.9075379
  52.0666182  13.1514412  22.7100561  52.0262037  12.5064089  22.1245717
  52.8789500  13.0951029  23.0225973  52.1809336  13.0473378  22.6697510
  48.6573650  19.2033137  12.6125712  48.2434048  18.5407268  12.2229553
  49.3421024  19.3510996  12.0921406  48.6972021  19.1273796  12.4782209
  52.0238944  18.3623223  13.3649328  51.6255227  18.4725493  12.5970148
  51.4090163  18.5705289  13.9475888  51.8737833  18.4096791  13.3380627
  53.4724662   4.9276875   9.6625218  53.2438355   4.9509577   8.8203576
  53.7322739   4.1034342   9.7820229  53.4770850   4.8092955   9.5550416
  47.7543891   6.7811348  19.2650318  47.2422794   6.1732531  19.6235350
  47.5823387   7.4967941  19.7324294  47.6533528   6.7974647  19.3866542
  42.6009606   5.2248923  21.9152680  42.4312196   5.8850298  21.3700887
  42.1575555   5.4355485  22.6365169  42.5108939   5.3534906  21.9414310
  46.5269425   3.4653421  10.9579414  47.0026791   3.8270501  10.3229595
  46.0258024   4.1209889  11.2379556  46.5234784   3.6147610  10.9056155
  51.6312961   4.7035593  21.7052574  52.1884391   4.4749402  21.0731039
  51.3074026   5.4641258  21.4287786  51.6659371   4.7819429  21.5709071
  39.5011670   8.1295789  17.1741170  38.9538389   7.4596435  17.2922038
  40.2904048   7.7625637  17.2384637  39.5363854   7.9760775  17.2009870
  49.3496078   7.7903246  22.6704581  50.1007405   8.1054923  22.9844135
  49.5418655   7.5882417  21.8438503  49.4887493   7.8070628  22.5947977
  38.2598639   7.3416597  14.3287193  38.0820401   6.8893206  15.0542109
  37.9717662   8.1442758  14.5125670  38.1911593   7.3939155  14.4630696
  53.9222221   8.5974314  13.5664583  54.4175886   7.8797309  13.5268604
  53.1121996   8.2945112  13.4519070  53.8766114   8.4471960  13.5438309
  49.3680832  12.4472127   5.7161588  48.5592155  12.1238801   5.6694897
  49.8755741  11.7405350   5.6489836  49.3230499  12.2953444   5.6991882
  39.9971109   9.8744321  11.4408952  39.1316629   9.8630011  11.3291723
  40.0969925   9.6874543  12.2880091  39.8845276   9.8450382  11.5497896
  55.9874039  11.3478002  16.2541712  56.4129111  10.8252424  15.7012137
  55.6230959  11.9458839  15.7330335  55.9960642  11.3588229  16.0950722
  45.6228119  19.6442219  15.0139058  45.9374678  20.4578608  15.0216839
  46.0321533  19.2592438  15.6821217  45.7296217  19.7070922  15.1143149
  52.5752639  15.0612266  12.5842869  53.0463817  15.7752529  12.7532855
  52.9112817  14.4611016  13.1202739  52.6947754  15.0783730  12.6875245
  54.6629623  16.6713579  24.7634942  54.7726589  15.8822140  25.1191689
  54.9920520  16.5819516  23.9609280  54.7282029  16.5419432  24.6977332
  53.2126585  14.8530200  19.3470562  52.6647531  14.2288084  19.0790627
  53.6739614  15.0424472  18.6314642  53.1993795  14.7889250  19.2020993
  42.9641139  13.5915328  14.6617666  43.5685997  13.5511162  14.0331487
  42.7568452  14.4386480  14.6921722  43.0230037  13.7103330  14.5733782
  52.7784912  15.8581273  15.8779903  53.5983285  15.7144239  16.1396198
  52.4978989  16.4827472  16.4196341  52.8581655  15.9291625  15.9967843
  38.1992422  12.5749945  14.5316589  38.1016700  11.7646217  14.8406646
  38.9821291  12.5541739  14.1462857  38.3008558  12.4517035  14.5203452
  62.4498247  22.6021775  13.5975710  61.5936142  22.7630274  13.6484827
  62.4965900  21.7313839  13.6180771  62.3297358  22.4972577  13.6081776
  56.8339386  32.1384493   9.3612942  56.0822286  31.7600032   9.1328987
  57.2825398  32.1702927   8.6131752  56.7889053  32.0870101   9.2170444
  65.7591963  28.8708301  23.2036166  66.4658731  28.3760332  23.3323101
  65.9479899  29.3117383  22.4738824  65.8919869  28.8626651  23.1145212
  62.2864346  32.5609863   4.7898489  61.9515715  33.2386784   4.3542711
  62.7991217  32.1715174   4.2015360  62.3129927  32.6034441   4.6385280
  61.8268638  34.5124132  10.7309600  62.2108017  35.0811030  10.1914376
  61.7627779  33.7873642  10.2515416  61.8742065  34.4899595  10.5803463
  65.2950068  24.6613819  16.2407362  65.8406028  25.3398906  16.3001331
  65.2366944  24.5201280  15.3808943  65.3665982  24.7405821  16.1219422
  58.4124143  32.1502886  11.6275714  58.5134506  31.3403239  11.9372842
  57.8165888  32.0559832  10.9975393  58.3396681  32.0167914  11.5801953
  67.0715136  26.0898427   7.1141090  66.9554662  26.8406113   7.5433228
  67.8671023  25.8322380   7.3637177  67.1719726  26.1633273   7.2145181
  58.2524882  37.0680475  13.0290570  58.8962338  37.5093639  13.4186729
  58.5781138  36.2633901  12.9420829  58.3956711  37.0145669  13.0736047
  51.6089187  28.1723172  11.2528048  51.3739371  27.3390824  11.1460317
  51.7474828  28.4527838  10.4389249  51.5944849  28.0906676  11.1170403
  53.9079274  20.3408903  14.1512356  53.2884306  19.7501550  13.9822370
  53.8063138  20.9320338  13.5176679  53.8016950  20.3412985  14.0317345
  58.9545462  30.0792450   8.4010432  59.2761303  30.6197657   7.7971740
  59.6017558  29.5089221   8.5332722  59.0971517  30.0751625   8.3317467
  61.0047170  22.0808444   8.4844819  61.7027335  22.2596572   8.9766282
  61.3199503  21.5578784   7.8615208  61.1542507  22.0302217   8.4646829
  53.6348407  23.8861184  16.3955924  53.5107104  24.4723630  17.0305743
  54.2866692  23.3921380  16.6968199  53.7122057  23.8999989  16.5341854
  61.1935105  28.4678890   8.4724610  61.6328741  27.8595990   8.9179383
  61.0439768  28.0886263   7.7010075  61.2356571  28.3217361   8.4243777
  58.6606748  27.0622901  15.6743436  59.3055751  26.5695344  15.3554384
  58.9008525  27.2047688  16.5009514  58.7917334  27.0100344  15.7492969
  61.1992840  29.9077807  15.3250328  61.4816083  29.1129213  15.1037084
  61.9279000  30.3858395  15.3455389  61.3482403  29.8612404  15.2953343
  59.1774034  17.4500841  12.5666093  58.8477364  17.9011985  11.8969792
  58.5019035  17.3717004  13.1139100  59.0284470  17.5051976  12.5489317
  64.7944442  26.8206071   5.4255379  64.7095737  27.6767037   5.5704948
  65.2828825  26.5450395   6.0937538  64.8533339  26.9063392   5.5457461
  65.7262875  23.4390865   6.9253114  65.1974347  23.6550499   7.5850421
  66.2487895  24.1327003   6.8454084  65.7251328  23.5734002   7.0108714
  71.1810928  29.0137169  12.2986159  70.3508631  29.2247813  12.4619575
  71.1320180  28.1874224  12.0228443  71.0517663  28.9226776  12.2823524
  57.6162483  27.3354082   5.7260582  57.0319698  27.8404113   6.1326446
  57.2132578  27.1096469   4.9857174  57.4701787  27.3762330   5.6765608
  53.1706512  33.0508843  12.5284254  52.6874090  33.7759333  12.5043838
  53.9829830  33.3484973  12.6394412  53.2197259  33.2011197  12.5411533
  59.2420666  31.8441024  15.1334068  58.7247607  31.4848439  14.5295377
  59.9395057  31.3203198  15.1440135  59.2686247  31.7138712  15.0464327
  62.8984258  32.2935838  21.0950241  62.9867603  32.1061978  21.9428452
  63.3273970  31.6473267  20.6955088  62.9746360  32.1698845  21.1621993
  60.4654717  31.5766998  20.0767904  59.9025552  31.1639607  20.6007565
  61.2275741  31.5019903  20.4961047  60.4949166  31.5044398  20.2160904
  57.3829988  15.5113130   8.0489041  58.1375956  15.8791447   7.8106091
  57.2057522  15.8852684   8.8168221  57.4684466  15.6211317   8.1273929
  56.0250709  33.5665019  12.6804534  56.7271288  33.0517008  12.7377290
  55.9448192  33.8939170  13.4851409  56.1174469  33.5379245  12.8077326
  70.6764886  21.6607570  16.0936580  69.8393307  21.7309757  16.3284175
  70.6453117  21.6632065  15.2210883  70.5483169  21.6717797  15.9996128
  57.0729615  23.8040606  21.8084949  57.2450119  23.6946500  22.6570230
  57.6098973  24.4495011  21.5716141  57.1774619  23.8832607  21.8990046
  55.7387052  17.9183449   4.7467154  55.5562626  18.1355329   3.9208147
  56.6012665  18.0322461   4.8025768  55.8391642  17.9673346   4.6321641
  55.3501484  29.7571371  12.1890142  56.1890384  29.9894304  12.2363903
  55.3813253  28.8875682  12.1197177  55.4783202  29.6628317  12.1854787
  55.9754187  30.1772246  16.4903447  56.5152412  30.0343377  17.1606820
  55.2924134  30.5768997  16.8587474  55.9546341  30.2151917  16.6437869
  65.3995072  25.8563247  11.6848472  66.1552587  26.2894761  11.7237380
  65.5057397  25.2068016  12.2583108  65.5265243  25.8240730  11.7746497
  68.4375243  29.6836524  12.4350875  68.0010475  29.6873266  13.1909846
  68.1038159  30.3642023  12.0030452  68.3237863  29.7848980  12.4831707
  63.0104317  31.7244857  23.7594025  63.7944734  31.8375704  24.1249767
  62.8100911  30.8985994  23.9552711  63.0970342  31.6191576  23.8428411
  51.3791332  26.3972537  16.6437869  51.1129748  25.5811653  16.8028859
  51.3929897  26.4425692  15.7733384  51.3416055  26.2829442  16.5391351
  68.3572726  16.7250352  14.6780303  68.9998635  16.7948456  15.2642218
  68.6095747  16.0579575  14.1759845  68.4894858  16.6376700  14.6907582
  55.2849079  21.1957621   3.2589627  54.5707256  20.9095801   3.6712060
  55.7693048  21.5354247   3.8996014  55.2508443  21.2039271   3.4145262
  56.1289939  19.9350915  19.2904877  55.4361736  19.4647895  19.5365608
  56.7450266  19.7089220  19.8646584  56.1174469  19.8318047  19.4114029
  63.1674710  33.6354959  17.4060481  62.3689956  33.3954459  17.6634349
  63.6160722  33.6869352  18.1527528  63.1149321  33.6077350  17.5545405
  71.5719590  26.4017444  11.3270512  72.2336024  25.8408112  11.2266420
  70.9311001  25.9069474  11.6523203  71.5748457  26.2453853  11.3602852
  62.4596397  29.6987575   3.6351435  62.8747546  29.3672599   2.9435931
  61.6288327  29.4656477   3.5071572  62.3984406  29.6158831   3.5142283
  51.7884746  27.1831316  13.9249613  51.6060319  27.1578202  13.0721905
  52.5234415  27.6530254  13.9638522  51.8698810  27.2492678  13.8047532
  67.8584420  27.4182826  11.0682501  68.0940009  27.5628025  10.2409351
  68.0073984  28.1825234  11.4614014  67.9150223  27.5521881  11.0046105
  54.8530498  23.9016319  20.4331722  55.5770470  23.8869350  20.9196617
  54.9546634  24.6111674  19.9353690  54.9748707  24.0041022  20.4310509
  69.6874877  26.2584492   8.9052105  70.0183094  26.7912132   8.2992199
  70.2607965  26.3123380   9.5614056  69.8208556  26.3454061   8.9129886
  62.2275447  27.3815404  25.2980669  61.4348428  27.6958915  25.4833288
  62.3424374  27.5966872  24.4601453  62.1270858  27.4599240  25.2019004
  64.9006766  24.1049395   9.5875685  64.9953620  24.8438689  10.0415310
  64.2765610  23.6766870  10.0210249  64.8215796  24.1510715   9.7183832
  63.1559240  27.2835607  20.2365966  63.7298102  26.6462852  20.3914529
  63.0774044  27.2839690  19.3675623  63.2292475  27.1900719  20.1312376
  51.7555656  24.0624817  14.0748680  52.3329159  23.9261268  14.7140925
  51.0569718  23.6060601  14.3294264  51.7376678  23.9747083  14.2070969
  58.5122959  25.7158873  12.2887163  58.2542203  24.8830607  12.2618462
  58.5671441  25.9416486  11.4479663  58.4822736  25.6256644  12.1607300
  63.5924009  17.8187323  12.3891256  62.8880335  17.3296509  12.5475175
  63.6408983  17.8309798  11.5179700  63.4954060  17.7476971  12.2830595
  57.4857671  23.2696635  12.7752058  56.9107262  23.4288803  13.4116019
  57.1093347  22.6332044  12.3120508  57.3460483  23.1994448  12.8006616
  61.1530959  21.7419984  17.6344436  60.7645392  21.3174202  16.9796627
  60.4885658  21.9902134  18.1421463  60.9977887  21.7158705  17.6132304
  47.2314490  22.9136710  10.7896498  47.3174741  22.5368578  11.5710028
  47.8590287  22.5397155  10.3116457  47.3371041  22.8022192  10.8341976
  64.9757321  15.4394613  15.1468420  65.3567833  14.7572784  15.5336295
  64.1720605  15.1504215  14.9644085  64.9133783  15.2961662  15.1772476
  62.2569898  25.9718589   5.8321243  63.0710536  26.2633482   5.7204014
  62.1929039  25.3178451   5.2579536  62.3672637  25.9183784   5.7310080
  68.4779388  28.6544585  20.2450819  68.2418025  27.8232650  20.1262879
  69.1222617  28.6030192  20.8305663  68.5374059  28.5242273  20.3136712
  58.1277806  29.4440106  10.9593555  58.7651753  29.2051854  11.5045349
  58.5532877  29.6477265  10.2246716  58.2853972  29.4391117  10.9310713
  52.8190448  31.6828443  14.8427859  52.8594594  31.9543294  14.0147639
  53.3784972  32.2070351  15.2585647  52.9073794  31.8004198  14.7819747
  58.7680621  24.6642396   5.2968445  59.1525774  24.4450103   6.0484990
  58.5192241  25.4905342   5.4269521  58.7882693  24.7540542   5.4269521
  58.9349161  17.9448811  25.0131029  58.6202602  18.7148374  24.7500592
  58.6139094  17.3819067  24.4283256  58.8408080  17.9759080  24.8872379
  69.5015808  28.4389034  16.3079113  69.1961625  29.1717091  16.6692429
  68.7822024  28.0326963  16.0271899  69.3503151  28.4870767  16.3192250
  60.5099278  29.9212529  12.6387341  60.5838286  29.7587701  13.4929191
  61.3268784  30.1102719  12.3947823  60.6415636  29.9249271  12.7285367
  75.2017601  25.0782034  15.6347457  75.1342101  25.0977994  14.7650044
  75.1873263  25.9212362  15.8603128  75.1896357  25.2055769  15.5399934
  54.2705035  30.2670392   9.6681785  53.4443152  30.5132129   9.5416064
  54.3317026  30.1882473  10.5343843  54.1579201  30.2915341   9.7770729
  56.4881058  16.3339333  10.6277225  55.6203484  16.4061932  10.6934834
  56.7756263  17.1361412  10.8165200  56.4020806  16.4633480  10.6651992
  65.6113947  16.4817192  18.9588547  66.3567539  16.2927003  18.5451972
  65.1951252  17.0075430  18.4002403  65.6598921  16.5319338  18.8153120
  59.0503864  32.8847272   7.3700815  59.3402162  32.4936253   6.6460041
  59.7807344  33.0663977   7.8106090  59.2010748  32.8541086   7.3283622
  72.9876218  23.8526421  13.9094052  73.5384139  23.2194490  14.1491144
  72.9720333  24.3841813  14.6009556  73.0661414  23.8375369  14.0472910
  59.6398609  27.6865018  18.4553945  59.1410302  28.3980786  18.5338834
  60.4498833  28.0065685  18.4172108  59.6854715  27.8391867  18.4610514
  56.9909779  34.8614654  10.4360965  56.7710075  34.5712009  11.2287632
  56.7704301  34.2029609   9.9078877  56.9257373  34.7214363  10.4749873
  55.9026726  26.9487971  12.7016666  55.6139975  26.3225442  13.2362394
  56.7710074  26.8908258  12.7681347  55.9886978  26.8475515  12.7907621
  66.6904624  22.0922754  13.0198648  66.3469390  21.3713090  13.3705898
  66.7897667  21.8836605  12.1777006  66.6546667  21.9546958  12.9470328
  59.1577735  36.2344044   9.2191657  59.8101793  35.7020487   9.4482683
  58.4603344  35.8812697   9.6059531  59.1508453  36.1033567   9.3103825
  56.1059000  28.5883222   8.6259031  56.8604968  28.9696261   8.8394494
  55.5129612  29.0394366   9.0805728  56.1295713  28.7112049   8.7241910
  67.1517653  28.5548458   8.5622636  67.7175686  29.2141668   8.4781179
  66.5045557  28.8998156   9.0339038  67.1396410  28.7030400   8.6195393
  58.5665667  20.5446062  23.7516244  57.7565442  20.8503842  23.6406086
  59.0440353  21.2651645  23.8668828  58.5169145  20.6960663  23.7523315
  57.4257226  29.7591783  13.9999147  56.9037980  29.8992075  14.6851011
  57.8131247  29.0002448  14.1901264  57.4060927  29.6677307  14.1300223
  54.4148410  19.8097592   8.0694101  54.1273206  19.4398863   7.3326049
  55.1018879  20.2792447   7.8077806  54.4737308  19.8244561   7.9209177
  63.6224231  31.4987243   7.9859715  63.3810907  30.7655103   7.5786780
  63.8025564  32.0474100   7.3326049  63.6131855  31.4709634   7.8289938
  58.8523552  26.7895802   9.3980638  58.6566335  27.3970537   8.8040941
  59.0757897  26.0963746   8.9172312  58.8558193  26.7773328   9.2396719
  57.2502082  23.6750540   9.5161506  57.9724734  23.8391698   9.0565312
  56.7710075  24.3960205   9.4100846  57.2865813  23.8048770   9.4327120
  65.2095590  20.0114339  14.8958191  64.3706690  20.0375618  14.6596454
  65.2799957  20.6585075  15.4763538  65.0963983  20.1110465  14.9467308
  54.9009699  26.0808613  18.6215646  55.4130796  26.3592866  17.9724406
  54.6146041  26.8197907  18.9878459  54.9344562  26.2310966  18.5805524
  69.0853113  25.2182326  12.1819433  68.9987088  25.3737752  13.0354212
  68.6303593  25.8620401  11.8078838  69.0056370  25.3358081  12.2526540
  51.9876605  20.5878805   8.9179382  52.0892741  21.3904966   9.2460358
  52.7832492  20.3866140   8.6202463  52.1204511  20.6764703   8.9214738
  58.4193424  18.1735001  18.6816688  58.2276621  18.1890136  19.5316111
  59.2692020  18.3698676  18.6583342  58.5169146  18.2049352  18.8039982
  52.8040337  20.7025983  16.6600504  52.6625829  19.8509923  16.7845012
  53.0880900  20.7454643  15.8362710  52.8248183  20.5825733  16.5568128
  62.9578929  22.5393073  10.8044992  62.7113644  22.4588824  11.6381781
  63.2864052  21.7546541  10.6107520  62.9700173  22.4119338  10.8992515
  66.8526978  29.2476432  14.5931774  66.7141338  29.9457478  15.0980516
  66.0726976  29.0925089  14.2367955  66.7170205  29.3276599  14.6158048
  65.1905063  25.5472808  20.8454155  65.1853102  24.6752624  20.8496582
  65.8966057  25.7460977  20.3723611  65.2950067  25.4476682  20.7761191
  58.9175957  25.2749792  20.2167975  59.0619332  25.8551000  19.5811085
  59.2651605  25.6526088  20.9217830  58.9903418  25.4170496  20.2266970
  61.0895874  24.4739960  17.9993107  60.3419188  24.6670974  17.5941385
  61.2437399  23.6485179  17.7617228  61.0018302  24.3805071  17.9038513
  57.9903712  33.4652563  17.0829002  58.1393275  32.9055479  16.4302407
  58.7703714  33.5444565  17.4661521  58.1277805  33.3938129  17.0425951
  60.5157012  33.6367206  18.3613493  60.4400683  32.9676017  18.9164281
  60.4446871  34.3384994  18.8754159  60.4937619  33.6412114  18.5190341
  61.3297651  18.3690511  18.8888511  61.7870265  19.1014485  19.0161303
  61.4053980  17.9456976  19.6475766  61.4088621  18.4147749  19.0189587
  53.5730642  18.6156330  19.9777954  53.0372832  18.0036689  20.2938722
  53.6348407  19.1904466  20.6311621  53.5026275  18.6103258  20.1213381
  61.1727259  32.1568205   9.1937099  61.9377150  31.8877849   8.8719763
  61.0705349  31.6718215   9.9107162  61.2708755  32.0457770   9.2516927
  59.2080029  20.3592615  15.7330335  58.4176104  20.1784075  16.0547671
  59.6040652  19.5819567  15.7160629  59.1496905  20.2180075  15.7782883
  64.5923715  27.9935045  13.4589781  63.9168717  27.7620277  13.9603168
  64.6016091  27.3856228  12.8331886  64.4942220  27.8693970  13.4405933
  61.7217859  22.8352874  20.2153834  61.6577000  23.6962830  20.0873970
  61.8615047  22.5184867  19.4149385  61.7333329  22.9153040  20.0782046
  66.5940450  30.8500177   5.6899959  66.6760287  31.6567163   5.3661409
  67.0790192  30.8696136   6.4140732  66.6777608  30.9720839   5.7486857
  60.4036953  25.5285013  14.3570037  59.9799202  25.7289512  13.6209055
  60.2281808  24.6813861  14.4694336  60.3147834  25.4333794  14.2643727
  59.9048647  37.0435526  16.8191494  60.3944577  36.3446315  16.6367158
  59.3332879  36.7459396  17.4067551  59.8933177  36.8961750  16.8792535
  55.6919398  26.0237064   9.7898009  55.8484017  25.9583867  10.6454001
  56.0319991  26.7985617   9.5776689  55.7652633  26.1286263   9.8852603
  62.2298543  25.3994948   8.6591372  62.7714088  24.8965329   9.1229993
  62.5445102  25.3460143   7.8480858  62.3562940  25.3174369   8.6075184
  66.1015650  29.6097595  25.7718284  66.9150515  29.3382744  25.9323417
  65.9410616  29.3105135  24.9678480  66.1985599  29.5252521  25.6763690
  60.3984992  30.7912300   5.9431400  60.4677813  29.9326838   6.0824401
  61.1773448  31.0084180   5.6150425  60.5237843  30.6965164   5.9148558
  63.3787812  20.2931253  18.7113673  63.5929782  19.6542167  18.1577027
  62.7621711  20.7377076  18.2821534  63.3193141  20.2641396  18.5664104
  64.7892480  33.2150001  10.1567894  64.3972272  32.9116716   9.4390760
  64.9445552  34.0519091   9.9672847  64.7546070  33.2933838  10.0224391
  52.2653660  23.2072015  10.1058776  52.6452624  23.6256560   9.4419044
  51.6909024  23.7885471  10.4127620  52.2364984  23.3549874  10.0535517
  65.5426900  21.9020318  19.6496980  64.7303582  21.5946208  19.7310153
  66.0016835  21.4219318  20.2139692  65.4907285  21.7856810  19.7451574
  64.9532155  29.7799990  10.0973924  64.5946810  29.9514633  10.8737957
  64.4670866  30.2413195   9.5401923  64.8290852  29.8738961  10.1299193
  62.7702541  13.4031188  13.7001016  61.8996099  13.3769909  13.6534325
  63.0242882  13.2308380  12.8826861  62.6796101  13.3741332  13.5721152
  59.7420520  25.4599155   2.6374159  60.0313045  26.2364038   2.9117733
  59.8292319  24.9487887   3.3388658  59.7974776  25.4991073   2.7816656
  62.6380408  23.3080389  24.4325682  63.1080039  23.9322506  24.8193556
  62.6842288  22.6397365  24.9918897  62.7148283  23.3015069  24.5725754
  59.7951681  15.4137417  15.1574486  59.2790170  14.7217608  15.2826065
  59.2345610  16.0808194  15.1037085  59.6358194  15.4100674  15.1680552
  61.8643915  15.9530377  16.9867338  61.4775668  15.9779408  17.7680868
  61.3776852  15.3872055  16.5341855  61.7356424  15.8726128  17.0355242
  66.1136894  30.6703886  21.0441125  66.7516615  30.1764081  20.7103581
  65.4710986  30.5981286  20.4593352  66.1131121  30.5862894  20.9083480
  67.8393894  22.5193032  15.6107041  67.4121502  22.4319380  14.8555140
  67.2019947  22.6270807  16.1961885  67.6823501  22.5225691  15.5852482
  61.5301056  12.8397362  19.2777598  62.1594174  13.3757662  18.9998669
  61.6986919  12.7474721  20.1291164  61.6478851  12.9058724  19.3626127
  61.3314971  17.6268557  21.5504010  62.1588401  17.3553706  21.6062624
  61.3522817  18.4229399  21.9067828  61.4567821  17.7048311  21.6119193
  66.1691151  31.3623694  17.6846482  66.9583529  31.0112759  17.8048563
  66.3434749  32.1760082  17.4223116  66.3111432  31.4309551  17.6634350
  55.9084461  24.7732420  14.7374271  55.0672468  24.6736294  14.9453164
  56.1174469  25.5427900  15.0888591  55.8149154  24.8724463  14.8201586
  53.3860028  22.3951957  12.5659021  52.9916726  22.4694968  11.7909131
  52.8300145  22.7809903  13.1167383  53.2462840  22.4633731  12.5326681
  65.0224975  15.3733251  12.2462900  65.2274568  15.3055559  13.0919897
  64.6951399  16.1792072  12.1784078  65.0040223  15.4819191  12.3622555
  59.7201126  22.7013819  13.9871868  59.4164264  22.1469807  14.5882276
  59.0180547  22.8806029  13.4999902  59.5717336  22.6458601  14.0041574
  58.7767223  20.0114339   8.5516570  59.0526957  19.2933251   8.1394138
  59.3765892  20.6099259   8.3437676  58.9060488  19.9934709   8.4597331
  57.7819477  29.9163540  18.6943966  57.6739832  29.9265602  19.5606024
  57.9915259  30.7418320  18.5048920  57.7969588  30.0404614  18.7948058
  55.7993269  27.1676182  16.1565904  55.2081202  27.8085680  16.1268919
  56.5614293  27.5913799  16.1297203  55.8241530  27.3252020  16.1481051
  56.1953892  18.3278180  16.8233921  56.6555373  18.4017109  17.5609045
  56.2409999  19.1259434  16.4733743  56.2704447  18.4572327  16.8806678
  57.8437242  18.9944875  21.3905948  57.4522807  18.3478222  21.8261726
  58.0123104  19.5856310  22.0100204  57.8108152  18.9859142  21.5468654
  71.9183691  26.9981952  17.1543182  71.9766814  27.4468600  17.9003158
  71.2850158  27.4080764  16.7173262  71.8334986  27.1255686  17.1995730
  65.5582785  32.6185494  13.5897928  65.3602474  33.1076308  12.8954139
  64.9370496  32.8226735  14.1682061  65.4370350  32.7202032  13.5721151
  59.6190764  24.3870390   7.9308172  60.3632809  24.7744667   8.1691122
  59.7651460  23.5427816   8.0948660  59.7501349  24.3200863   7.9902142
  61.5370339  16.1820649  12.9640034  60.6906384  16.3543457  12.8381384
  61.5341472  15.3769993  13.3005862  61.4117489  16.0881678  12.9951161
  62.6068639  19.9595864  13.8302092  62.1328594  19.4337626  14.3407403
  62.9786775  19.4125337  13.2616953  62.5918528  19.8011860  13.8217239
  52.9841670  21.9567370  19.1985637  53.8467283  21.8563080  19.1122967
  52.6533453  21.3762080  18.6371210  53.0626866  21.8558997  19.1031043
  68.8705370  25.0198239  15.2408872  68.6303593  24.1804655  15.2451299
  69.3497377  25.0998406  15.9649646  68.9057554  24.9079639  15.3483674
  70.8710557  21.7999697  13.1938131  70.6320327  21.7595531  12.3558916
  71.0344458  22.6470849  13.3203852  70.8600861  21.9191782  13.0891613
  67.4756587  26.1849646  19.1243176  68.1990786  25.7322172  18.9454196
  67.2106550  26.4654312  18.3415504  67.5437861  26.1600614  18.9821892
  56.3443456  20.7809819  15.8596056  55.7196526  20.7928211  15.2522008
  56.0089050  21.2569995  16.5087296  56.2028947  20.8528336  15.8652624
  56.5285204  19.1234938   1.9168741  56.1798009  19.7754663   2.3800290
  56.0481650  19.1092051   1.1892612  56.4055448  19.2177991   1.8779832
  53.0569131  28.8410279  17.2999820  52.5269056  28.1502718  17.3494795
  53.3294224  28.8320465  16.4712528  53.0193853  28.7377411  17.1847236
  64.0889222  29.4235982   6.0237502  64.8123421  29.8894095   5.8802076
  63.6489813  29.4909591   5.2735099  64.1304914  29.5019819   5.8922284
  63.2575377  26.2833524  17.2738191  62.6432370  25.7391574  17.5686827
  63.7742662  25.7697761  16.7944008  63.2431039  26.1269933  17.2462420
  62.4971674  27.3537794  15.0082490  62.0699282  26.7287513  14.5747925
  62.4896618  27.0712716  15.8341497  62.4330815  27.2190575  15.0662318
  55.6134201  22.3902967  18.0770924  55.7727688  21.6346291  18.4822646
  55.4327095  22.9393907  18.7311662  55.6099560  22.3596781  18.2333630
  63.5554504  14.5564203  18.6321714  63.0595065  14.7527877  17.9413280
  64.3123566  14.9556871  18.4610515  63.5941329  14.6441937  18.5041850
  60.8257384  18.2306549  15.2225024  60.8499871  17.6966661  14.5337804
  61.0768857  17.7223857  15.8850615  60.8667302  18.0767453  15.2189669
  48.3364973  25.5138044  14.6568168  48.2308422  25.4684888  13.7920252
  47.5865193  25.8591824  14.9382453  48.2100576  25.5578952  14.5705498
  57.1058706  16.9577367  14.6030768  57.1457077  17.4586573  15.3165476
  56.2808370  17.0487761  14.3336691  56.9898232  17.0459183  14.6681307
  59.2888319  26.5238107  22.7051063  58.4383949  26.6609821  22.8408708
  59.4516446  25.7901885  23.1498765  59.1872182  26.4352208  22.7906662
  58.5273069  23.4737877  16.9004667  57.6964999  23.6411695  16.6939916
  58.4724586  23.0973828  17.6853553  58.3962484  23.4427608  16.9853196
  56.3356852  16.9646770  22.5361078  56.9609556  16.4208902  22.8090510
  55.8807332  16.4841687  21.9668868  56.3605113  16.8136251  22.4922672
  56.9009113  21.7493468   7.4294785  57.0412074  22.2465933   8.1323426
  57.3991646  21.0479763   7.5708999  56.9950194  21.7195447   7.5546364
  56.9309335  22.6160579   4.7587362  57.5654415  23.2121004   4.6936824
  57.0134946  22.3164037   5.5733232  57.0365886  22.6601487   4.8690448
  69.9091901  25.1476057  17.6273726  70.5009741  25.7873307  17.6591924
  70.3450896  24.4499093  17.9165793  70.0610332  25.1394407  17.6754559
  58.5088318  18.5474555   4.7332804  58.8304159  18.0677637   4.0792066
  58.7715262  19.3574201   4.5423616  58.5954344  18.5964453   4.6088296
  61.7385291  29.5693429  18.2531620  61.2310382  30.1229276  18.6972251
  61.4411937  29.6301719  17.4350395  61.6190176  29.6599740  18.1980077
  63.9047473  17.9346749  17.0956283  64.3302545  17.4819275  16.4839809
  63.2904466  17.3806819  17.3721070  63.8776119  17.7860725  17.0461308
  53.4362323  24.8128420   8.0276908  53.9454553  25.4092928   8.4088213
  53.9096596  24.5454394   7.3453328  53.5805699  24.8614236   7.9831431
  64.3493071  33.4856687   6.1835564  63.6322381  33.3117549   5.7182801
  64.9999809  33.2509259   5.6511050  64.3394922  33.4252479   6.0364781
  62.3441696  14.4061848  10.5046860  61.7010014  14.2559495  11.0731998
  62.0041103  14.1604194   9.7395965  62.1986773  14.3473971  10.4749875
  66.9341043  22.3621275   9.9276869  66.2632232  22.9050978   9.7989934
  67.6280793  22.8316131   9.6858563  66.9369910  22.5119547   9.8732396
  60.9827776  34.5017987  15.1588627  60.7593431  33.7436817  15.5272653
  60.4937620  34.5316009  14.4369067  60.8771225  34.3940212  15.1065368
  67.0969170  18.8177159  12.8367242  67.4496780  18.3906882  13.5113041
  66.2383971  18.7328002  12.9668318  67.0218615  18.7421900  12.9562252
  55.7952855  21.4484679  10.8950088  55.0764844  21.8648811  11.1622952
  56.1665217  22.0138917  10.3441727  55.7444787  21.5933960  10.8532895
  65.0952436  22.0812528  16.7852084  65.0750363  21.8995823  17.6386863
  65.1431637  22.9524546  16.7611668  65.0987077  22.1829066  16.9075379
  63.0398766  28.6699720  22.7100561  62.9994621  28.0249396  22.1245717
  63.8522084  28.6136337  23.0225973  63.1541919  28.5658686  22.6697510
  59.6306233  34.7218445  12.6125712  59.2166632  34.0592576  12.2229553
  60.3153607  34.8696304  12.0921406  59.6704605  34.6459104  12.4782209
  62.9971527  33.8808531  13.3649328  62.5987811  33.9910801  12.5970148
  62.3822747  34.0890597  13.9475888  62.8470417  33.9282099  13.3380627
  61.5699429  20.4882679   6.2323468  60.9764269  20.8099675   5.6808035
  61.6074707  19.6423774   6.0244574  61.4873818  20.4107007   6.1206239
  64.4457246  20.4462183   9.6625218  64.2170939  20.4694884   8.8203576
  64.7055322  19.6219650   9.7820229  64.4503434  20.3278263   9.5550416
  58.7276474  22.2996656  19.2650318  58.2155377  21.6917839  19.6235350
  58.5555971  23.0153249  19.7324294  58.6266111  22.3159955  19.3866542
  53.5742189  20.7434231  21.9152680  53.4044779  21.4035606  21.3700887
  53.1308139  20.9540793  22.6365169  53.4841523  20.8720214  21.9414310
  57.5002008  18.9838729  10.9579414  57.9759375  19.3455809  10.3229595
  56.9990608  19.6395197  11.2379556  57.4967367  19.1332918  10.9056155
  62.6045545  20.2220901  21.7052574  63.1616975  19.9934710  21.0731039
  62.2806610  20.9826566  21.4287786  62.6391955  20.3004737  21.5709071
  50.4744254  23.6481097  17.1741170  49.9270973  22.9781743  17.2922038
  51.2636632  23.2810945  17.2384637  50.5096437  23.4946083  17.2009870
  60.3228662  23.3088554  22.6704581  61.0739989  23.6240231  22.9844135
  60.5151238  23.1067725  21.8438503  60.4620076  23.3255936  22.5947977
  59.5428662  21.1279929   4.3252798  59.9227626  21.1459558   3.5403912
  58.8021258  21.5733918   4.2043645  59.4897499  21.1961704   4.1916366
  67.1713952  19.4362120   9.9128376  67.1708179  19.2810777  10.7712653
  66.9670132  20.2825107   9.8569762  67.1413730  19.5382741  10.0316316
  49.2331223  22.8601905  14.3287193  49.0552984  22.4078514  15.0542109
  48.9450245  23.6628066  14.5125670  49.1644176  22.9124463  14.4630696
  64.8954804  24.1159622  13.5664583  65.3908469  23.3982617  13.5268604
  64.0854580  23.8130420  13.4519070  64.8498697  23.9657268  13.5438309
  60.3413416  27.9657435   5.7161588  59.5324738  27.6424109   5.6694897
  60.8488325  27.2590657   5.6489836  60.2963082  27.8138752   5.6991882
  50.9703693  25.3929628  11.4408952  50.1049212  25.3815319  11.3291723
  51.0702509  25.2059851  12.2880091  50.8577860  25.3635690  11.5497896
  66.9606623  26.8663310  16.2541712  67.3861695  26.3437731  15.7012137
  66.5963543  27.4644147  15.7330335  66.9693226  26.8773537  16.0950722
  56.5960703  35.1627527  15.0139058  56.9107262  35.9763916  15.0216839
  57.0054116  34.7777746  15.6821217  56.7028801  35.2256229  15.1143149
  63.5485222  30.5797574  12.5842869  64.0196401  31.2937836  12.7532855
  63.8845401  29.9796324  13.1202739  63.6680338  30.5969038  12.6875245
  65.6362207  32.1898887  24.7634942  65.7459173  31.4007448  25.1191689
  65.9653104  32.1004823  23.9609280  65.7014613  32.0604740  24.6977332
  60.4654717  15.3525044  19.5400964  60.5982623  14.5556038  19.8681940
  60.8499870  15.8791447  20.1199240  60.5411046  15.3124961  19.6744467
  64.1859169  30.3715508  19.3470562  63.6380115  29.7473392  19.0790627
  64.6472198  30.5609780  18.6314642  64.1726378  30.3074558  19.2020993
  63.5387073  12.2755371  16.1382058  62.7333036  12.1653100  16.4549896
  63.4093808  12.3767826  15.2811923  63.4007205  12.2739041  16.0590098
  66.9953033  18.4400862  16.7321754  66.4116022  18.9410069  16.3199322
  67.3157327  17.9330419  16.0986078  66.9566208  18.4392698  16.5780262
  59.5347832  17.3541457   7.0080429  60.3563527  17.5239770   6.7662124
  59.0717483  17.5088718   6.2846727  59.5878995  17.4023190   6.8652074
  58.1243164  15.3484220  17.7878858  58.6687577  15.0075346  18.3783200
  58.1780100  16.2069681  17.9300143  58.2132284  15.4239479  17.8960731
  53.9373723  29.1100636  14.6617666  54.5418580  29.0696470  14.0331487
  53.7301036  29.9571788  14.6921722  53.9962620  29.2288638  14.5733782
  63.7517495  31.3766581  15.8779903  64.5715869  31.2329547  16.1396198
  63.4711573  32.0012780  16.4196341  63.8314238  31.4476933  15.9967843
  49.1725005  28.0935253  14.5316589  49.0749283  27.2831525  14.8406646
  49.9553875  28.0727046  14.1462857  49.2741142  27.9702343  14.5203452
  73.4230830  38.1207083  13.5975710  72.5668726  38.2815582  13.6484827
  73.4698484  37.2499147  13.6180771  73.3029942  38.0157885  13.6081776
  67.8071970  47.6569801   9.3612942  67.0554870  47.2785340   9.1328987
  68.2557982  47.6888235   8.6131752  67.7621637  47.6055408   9.2170444
  76.7324547  44.3893609  23.2036166  77.4391314  43.8945640  23.3323101
  76.9212482  44.8302691  22.4738824  76.8652452  44.3811959  23.1145212
  76.2682651  40.1799127  16.2407362  76.8138611  40.8584214  16.3001331
  76.2099528  40.0386588  15.3808943  76.3398566  40.2591129  16.1219422
  69.3856726  47.6688193  11.6275714  69.4867089  46.8588547  11.9372842
  68.7898471  47.5745140  10.9975393  69.3129265  47.5353222  11.5801953
  69.2257466  52.5865783  13.0290570  69.8694921  53.0278947  13.4186729
  69.5513721  51.7819209  12.9420829  69.3689294  52.5330977  13.0736047
  62.5821771  43.6908480  11.2528048  62.3471955  42.8576132  11.1460317
  62.7207411  43.9713146  10.4389249  62.5677433  43.6091983  11.1170403
  64.8811858  35.8594211  14.1512356  64.2616890  35.2686858  13.9822370
  64.7795722  36.4505646  13.5176679  64.7749533  35.8598293  14.0317345
  71.9779754  37.5993752   8.4844819  72.6759918  37.7781880   8.9766282
  72.2932086  37.0764092   7.8615208  72.1275091  37.5487525   8.4646829
  64.6080991  39.4046492  16.3955924  64.4839688  39.9908938  17.0305743
  65.2599275  38.9106688  16.6968199  64.6854640  39.4185297  16.5341854
  72.1667689  43.9864197   8.4724610  72.6061324  43.3781298   8.9179383
  72.0172352  43.6071571   7.7010075  72.2089155  43.8402669   8.4243777
  69.6339332  42.5808209  15.6743436  70.2788335  42.0880652  15.3554384
  69.8741109  42.7232996  16.5009514  69.7649917  42.5285651  15.7492969
  72.1725423  45.4263115  15.3250328  72.4548666  44.6314521  15.1037084
  72.9011584  45.9043703  15.3455389  72.3214987  45.3797712  15.2953343
  70.1506617  32.9686149  12.5666093  69.8209947  33.4197293  11.8969792
  69.4751619  32.8902312  13.1139100  70.0017053  33.0237284  12.5489317
  64.1439095  48.5694151  12.5284254  63.6606673  49.2944640  12.5043838
  64.9562413  48.8670281  12.6394412  64.1929843  48.7196505  12.5411533
  70.2153249  47.3626332  15.1334068  69.6980191  47.0033747  14.5295377
  70.9127640  46.8388506  15.1440135  70.2418830  47.2324019  15.0464327
  73.8716841  47.8121146  21.0950241  73.9600187  47.6247286  21.9428452
  74.3006554  47.1658575  20.6955088  73.9478944  47.6884153  21.1621993
  71.4387301  47.0952306  20.0767904  70.8758136  46.6824915  20.6007565
  72.2008324  47.0205211  20.4961047  71.4681750  47.0229706  20.2160904
  68.3562571  31.0298437   8.0489041  69.1108539  31.3976755   7.8106091
  68.1790106  31.4037992   8.8168221  68.4417050  31.1396625   8.1273929
  66.9983292  49.0850327  12.6804534  67.7003872  48.5702316  12.7377290
  66.9180776  49.4124478  13.4851409  67.0907053  49.0564553  12.8077326
  68.0462199  39.3225914  21.8084949  68.2182703  39.2131808  22.6570230
  68.5831557  39.9680319  21.5716141  68.1507203  39.4017915  21.8990046
  66.7119636  33.4368756   4.7467154  66.5295209  33.6540637   3.9208147
  67.5745249  33.5507769   4.8025768  66.8124225  33.4858654   4.6321641
  66.3234068  45.2756679  12.1890142  67.1622967  45.5079611  12.2363903
  66.3545837  44.4060990  12.1197177  66.4515785  45.1813625  12.1854787
  66.9486771  45.6957554  16.4903447  67.4884996  45.5528685  17.1606820
  66.2656717  46.0954305  16.8587474  66.9278925  45.7337225  16.6437869
  76.3727656  41.3748555  11.6848472  77.1285171  41.8080069  11.7237380
  76.4789980  40.7253324  12.2583108  76.4997826  41.3426038  11.7746497
  73.9836900  47.2430165  23.7594025  74.7677317  47.3561012  24.1249767
  73.7833495  46.4171302  23.9552711  74.0702926  47.1376884  23.8428411
  62.3523916  41.9157845  16.6437869  62.0862331  41.0996961  16.8028859
  62.3662480  41.9611000  15.7733384  62.3148638  41.8014749  16.5391351
  66.2581663  36.7142929   3.2589627  65.5439840  36.4281109   3.6712060
  66.7425632  37.0539555   3.8996014  66.2241026  36.7224579   3.4145262
  67.1022522  35.4536223  19.2904877  66.4094319  34.9833203  19.5365608
  67.7182850  35.2274528  19.8646584  67.0907052  35.3503355  19.4114029
  74.1407294  49.1540267  17.4060481  73.3422540  48.9139767  17.6634349
  74.5893305  49.2054660  18.1527528  74.0881905  49.1262658  17.5545405
  62.7617330  42.7016624  13.9249613  62.5792903  42.6763510  13.0721905
  63.4966999  43.1715562  13.9638522  62.8431393  42.7677986  13.8047532
  65.8263081  39.4201627  20.4331722  66.5503054  39.4054658  20.9196617
  65.9279218  40.1296982  19.9353690  65.9481290  39.5226330  20.4310509
  73.2008031  42.9000712  25.2980669  72.4081011  43.2144223  25.4833288
  73.3156958  43.1152180  24.4601453  73.1003441  42.9784548  25.2019004
  75.8739350  39.6234703   9.5875685  75.9686204  40.3623997  10.0415310
  75.2498193  39.1952178  10.0210249  75.7948380  39.6696023   9.7183832
  74.1291824  42.8020915  20.2365966  74.7030685  42.1648160  20.3914529
  74.0506627  42.8024998  19.3675623  74.2025058  42.7086027  20.1312376
  62.7288240  39.5810125  14.0748680  63.3061743  39.4446576  14.7140925
  62.0302302  39.1245909  14.3294264  62.7109261  39.4932391  14.2070969
  69.4855542  41.2344180  12.2887163  69.2274786  40.4015915  12.2618462
  69.5404025  41.4601793  11.4479663  69.4555320  41.1441952  12.1607300
  74.5656592  33.3372631  12.3891256  73.8612919  32.8481817  12.5475175
  74.6141567  33.3495106  11.5179700  74.4686644  33.2662279  12.2830595
  68.4590254  38.7881943  12.7752058  67.8839846  38.9474111  13.4116019
  68.0825931  38.1517352  12.3120508  68.3193067  38.7179756  12.8006616
  72.1263543  37.2605292  17.6344436  71.7377976  36.8359510  16.9796627
  71.4618241  37.5087442  18.1421463  71.9710471  37.2344013  17.6132304
  58.2047073  38.4322018  10.7896498  58.2907325  38.0553886  11.5710028
  58.8322871  38.0582463  10.3116457  58.3103624  38.3207500  10.8341976
  75.9489904  30.9579921  15.1468420  76.3300416  30.2758092  15.5336295
  75.1453189  30.6689523  14.9644085  75.8866366  30.8146969  15.1772476
  69.1010389  44.9625414  10.9593555  69.7384336  44.7237162  11.5045349
  69.5265461  45.1662573  10.2246716  69.2586556  44.9576424  10.9310713
  63.7923032  47.2013751  14.8427859  63.8327177  47.4728602  14.0147639
  64.3517556  47.7255659  15.2585647  63.8806378  47.3189506  14.7819747
  69.7413204  40.1827704   5.2968445  70.1258357  39.9635411   6.0484990
  69.4924825  41.0090649   5.4269521  69.7615277  40.2725850   5.4269521
  69.9081745  33.4634119  25.0131029  69.5935186  34.2333682  24.7500592
  69.5871677  32.9004375  24.4283256  69.8140664  33.4944388  24.8872379
  71.4831861  45.4397837  12.6387341  71.5570870  45.2773009  13.4929191
  72.3001368  45.6288026  12.3947823  71.6148220  45.4434579  12.7285367
  65.2437618  45.7855700   9.6681785  64.4175736  46.0317437   9.5416064
  65.3049609  45.7067781  10.5343843  65.1311785  45.8100649   9.7770729
  67.4613642  31.8524641  10.6277225  66.5936067  31.9247240  10.6934834
  67.7488846  32.6546720  10.8165200  67.3753390  31.9818788  10.6651992
  76.5846531  32.0002500  18.9588547  77.3300123  31.8112310  18.5451972
  76.1683835  32.5260738  18.4002403  76.6331505  32.0504645  18.8153120
  70.6131192  43.2050326  18.4553945  70.1142886  43.9166094  18.5338834
  71.4231417  43.5250992  18.4172108  70.6587299  43.3577174  18.4610514
  67.9642363  50.3799962  10.4360965  67.7442658  50.0897317  11.2287632
  67.7436885  49.7214917   9.9078877  67.8989957  50.2399671  10.4749873
  66.8759310  42.4673279  12.7016666  66.5872559  41.8410750  13.2362394
  67.7442658  42.4093566  12.7681347  66.9619562  42.3660823  12.7907621
  77.6637208  37.6108062  13.0198648  77.3201974  36.8898397  13.3705898
  77.7630250  37.4021913  12.1777006  77.6279251  37.4732265  12.9470328
  67.0791583  44.1068530   8.6259031  67.8337551  44.4881569   8.8394494
  66.4862196  44.5579674   9.0805728  67.1028297  44.2297357   8.7241910
  69.5398250  36.0631370  23.7516244  68.7298026  36.3689150  23.6406086
  70.0172937  36.7836953  23.8668828  69.4901729  36.2145971  23.7523315
  68.3989810  45.2777091  13.9999147  67.8770563  45.4177383  14.6851011
  68.7863830  44.5187756  14.1901264  68.3793511  45.1862615  14.1300223
  65.3880994  35.3282900   8.0694101  65.1005790  34.9584170   7.3326049
  66.0751462  35.7977755   7.8077806  65.4469891  35.3429869   7.9209177
  69.8256135  42.3081110   9.3980638  69.6298918  42.9155845   8.8040941
  70.0490481  41.6149054   8.9172312  69.8290776  42.2958636   9.2396719
  68.2234665  39.1935848   9.5161506  68.9457317  39.3577006   9.0565312
  67.7442658  39.9145513   9.4100846  68.2598396  39.3234078   9.4327120
  76.1828173  35.5299647  14.8958191  75.3439274  35.5560926  14.6596454
  76.2532540  36.1770382  15.4763538  76.0696567  35.6295773  14.9467308
  65.8742282  41.5993921  18.6215646  66.3863379  41.8778174  17.9724406
  65.5878625  42.3383215  18.9878459  65.9077145  41.7496274  18.5805524
  62.9609189  36.1064112   8.9179382  63.0625325  36.9090274   9.2460358
  63.7565075  35.9051448   8.6202463  63.0937094  36.1950011   8.9214738
  69.3926008  33.6920309  18.6816688  69.2009205  33.7075444  19.5316111
  70.2424604  33.8883983  18.6583342  69.4901730  33.7234660  18.8039982
  63.7772921  36.2211291  16.6600504  63.6358412  35.3695231  16.7845012
  64.0613484  36.2639951  15.8362710  63.7980767  36.1011041  16.5568128
  73.9311513  38.0578381  10.8044992  73.6846227  37.9774132  11.6381781
  74.2596636  37.2731849  10.6107520  73.9432757  37.9304646  10.8992515
  77.8259562  44.7661740  14.5931774  77.6873921  45.4642786  15.0980516
  77.0459560  44.6110397  14.2367955  77.6902789  44.8461907  14.6158048
  76.1637647  41.0658116  20.8454155  76.1585685  40.1937932  20.8496582
  76.8698641  41.2646285  20.3723611  76.2682651  40.9661990  20.7761191
  69.8908540  40.7935099  20.2167975  70.0351916  41.3736308  19.5811085
  70.2384189  41.1711396  20.9217830  69.9636002  40.9355803  20.2266970
  72.0628458  39.9925268  17.9993107  71.3151772  40.1856282  17.5941385
  72.2169983  39.1670487  17.7617228  71.9750885  39.8990379  17.9038513
  68.9636295  48.9837871  17.0829002  69.1125859  48.4240787  16.4302407
  69.7436297  49.0629873  17.4661521  69.1010389  48.9123437  17.0425951
  71.4889596  49.1552514  18.3613493  71.4133267  48.4861325  18.9164281
  71.4179455  49.8570302  18.8754159  71.4670203  49.1597421  18.5190341
  72.3030235  33.8875819  18.8888511  72.7602849  34.6199793  19.0161303
  72.3786563  33.4642284  19.6475766  72.3821204  33.9333057  19.0189587
  64.5463226  34.1341638  19.9777954  64.0105415  33.5221996  20.2938722
  64.6080991  34.7089774  20.6311621  64.4758859  34.1288566  20.1213381
  70.1812613  35.8777922  15.7330335  69.3908687  35.6969383  16.0547671
  70.5773235  35.1004875  15.7160629  70.1229489  35.7365383  15.7782883
  75.5656299  43.5120353  13.4589781  74.8901301  43.2805585  13.9603168
  75.5748675  42.9041536  12.8331886  75.4674803  43.3879278  13.4405933
  72.6950443  38.3538182  20.2153834  72.6309584  39.2148138  20.0873970
  72.8347631  38.0370175  19.4149385  72.7065913  38.4338348  20.0782046
  71.3769537  41.0470321  14.3570037  70.9531786  41.2474820  13.6209055
  71.2014392  40.1999169  14.4694336  71.2880417  40.9519102  14.2643727
  70.8781230  52.5620834  16.8191494  71.3677160  51.8631623  16.6367158
  70.3065462  52.2644704  17.4067551  70.8665760  52.4147058  16.8792535
  66.6651982  41.5422372   9.7898009  66.8216601  41.4769175  10.6454001
  67.0052575  42.3170925   9.5776689  66.7385217  41.6471571   9.8852603
  73.2031126  40.9180256   8.6591372  73.7446672  40.4150637   9.1229993
  73.5177685  40.8645451   7.8480858  73.3295523  40.8359677   8.6075184
  77.0748234  45.1282903  25.7718284  77.8883099  44.8568052  25.9323417
  76.9143200  44.8290443  24.9678480  77.1718182  45.0437829  25.6763690
  74.3520396  35.8116560  18.7113673  74.5662365  35.1727475  18.1577027
  73.7354295  36.2562384  18.2821534  74.2925725  35.7826704  18.5664104
  63.2386243  38.7257323  10.1058776  63.6185208  39.1441868   9.4419044
  62.6641608  39.3070779  10.4127620  63.2097568  38.8735182  10.0535517
  76.5159484  37.4205626  19.6496980  75.7036165  37.1131516  19.7310153
  76.9749418  36.9404626  20.2139692  76.4639868  37.3042118  19.7451574
  73.7435124  28.9216496  13.7001016  72.8728682  28.8955217  13.6534325
  73.9975466  28.7493688  12.8826861  73.6528684  28.8926640  13.5721152
  73.6112991  38.8265697  24.4325682  74.0812622  39.4507813  24.8193556
  73.6574871  38.1582673  24.9918897  73.6880867  38.8200377  24.5725754
  70.7684265  30.9322725  15.1574486  70.2522753  30.2402916  15.2826065
  70.2078194  31.5993502  15.1037085  70.6090778  30.9285982  15.1680552
  77.0869478  46.1889194  21.0441125  77.7249198  45.6949389  20.7103581
  76.4443569  46.1166594  20.4593352  77.0863704  46.1048202  20.9083480
  78.8126478  38.0378340  15.6107041  78.3854086  37.9504688  14.8555140
  78.1752531  38.1456115  16.1961885  78.6556085  38.0410999  15.5852482
  72.5033640  28.3582670  19.2777598  73.1326758  28.8942970  18.9998669
  72.6719503  28.2660029  20.1291164  72.6211435  28.4244032  19.3626127
  72.3047555  33.1453865  21.5504010  73.1320984  32.8739014  21.6062624
  72.3255401  33.9414706  21.9067828  72.4300405  33.2233619  21.6119193
  77.1423734  46.8809002  17.6846482  77.9316112  46.5298067  17.8048563
  77.3167332  47.6945390  17.4223116  77.2844016  46.9494859  17.6634350
  66.8817045  40.2917728  14.7374271  66.0405051  40.1921602  14.9453164
  67.0907053  41.0613208  15.0888591  66.7881737  40.3909771  14.8201586
  64.3592612  37.9137265  12.5659021  63.9649309  37.9880276  11.7909131
  63.8032729  38.2995211  13.1167383  64.2195424  37.9819039  12.5326681
  70.6933710  38.2199127  13.9871868  70.3896847  37.6655115  14.5882276
  69.9913130  38.3991337  13.4999902  70.5449919  38.1643909  14.0041574
  69.7499807  35.5299647   8.5516570  70.0259541  34.8118559   8.1394138
  70.3498476  36.1284567   8.3437676  69.8793071  35.5120017   8.4597331
  68.7552061  45.4348847  18.6943966  68.6472416  45.4450910  19.5606024
  68.9647842  46.2603628  18.5048920  68.7702172  45.5589922  18.7948058
  66.7725853  42.6861490  16.1565904  66.1813786  43.3270988  16.1268919
  67.5346876  43.1099107  16.1297203  66.7974113  42.8437328  16.1481051
  67.1686475  33.8463488  16.8233921  67.6287957  33.9202417  17.5609045
  67.2142582  34.6444742  16.4733743  67.2437031  33.9757635  16.8806678
  68.8169825  34.5130183  21.3905948  68.4255390  33.8663530  21.8261726
  68.9855688  35.1041618  22.0100204  68.7840735  34.5044450  21.5468654
  76.5315369  48.1370801  13.5897928  76.3335057  48.6261616  12.8954139
  75.9103080  48.3412043  14.1682061  76.4102933  48.2387340  13.5721151
  70.5923347  39.9055698   7.9308172  71.3365392  40.2929975   8.1691122
  70.7384043  39.0613124   8.0948660  70.7233932  39.8386171   7.9902142
  72.5102923  31.7005957  12.9640034  71.6638968  31.8728765  12.8381384
  72.5074055  30.8955301  13.3005862  72.3850073  31.6066986  12.9951161
  73.5801223  35.4781172  13.8302092  73.1061177  34.9522934  14.3407403
  73.9519359  34.9310644  13.2616953  73.5651112  35.3197168  13.8217239
  63.9574253  37.4752678  19.1985637  64.8199866  37.3748388  19.1122967
  63.6266036  36.8947388  18.6371210  64.0359450  37.3744305  19.1031043
  67.3176039  36.2995127  15.8596056  66.6929109  36.3113519  15.2522008
  66.9821634  36.7755302  16.5087296  67.1761531  36.3713644  15.8652624
  67.5017788  34.6420246   1.9168741  67.1530592  35.2939971   2.3800290
  67.0214234  34.6277359   1.1892612  67.3788032  34.7363299   1.8779832
  64.0301715  44.3595587  17.2999820  63.5001639  43.6688026  17.3494795
  64.3026808  44.3505773  16.4712528  63.9926437  44.2562719  17.1847236
  74.2307960  41.8018832  17.2738191  73.6164953  41.2576882  17.5686827
  74.7475245  41.2883068  16.7944008  74.2163623  41.6455241  17.2462420
  73.4704257  42.8723102  15.0082490  73.0431865  42.2472821  14.5747925
  73.4629202  42.5898024  15.8341497  73.4063399  42.7375883  15.0662318
  66.5866785  37.9088275  18.0770924  66.7460271  37.1531599  18.4822646
  66.4059678  38.4579215  18.7311662  66.5832144  37.8782089  18.2333630
  74.5287088  30.0749511  18.6321714  74.0327649  30.2713185  17.9413280
  75.2856150  30.4742179  18.4610515  74.5673912  30.1627244  18.5041850
  71.7989967  33.7491857  15.2225024  71.8232454  33.2151969  14.5337804
  72.0501441  33.2409165  15.8850615  71.8399886  33.5952761  15.2189669
  59.3097557  41.0323352  14.6568168  59.2041006  40.9870196  13.7920252
  58.5597777  41.3777132  14.9382453  59.1833160  41.0764260  14.5705498
  68.0791289  32.4762675  14.6030768  68.1189661  32.9771881  15.3165476
  67.2540954  32.5673069  14.3336691  67.9630815  32.5644491  14.6681307
  70.2620902  42.0423415  22.7051063  69.4116533  42.1795129  22.8408708
  70.4249030  41.3087193  23.1498765  70.1604766  41.9537516  22.7906662
  67.3089436  32.4832078  22.5361078  67.9342139  31.9394210  22.8090510
  66.8539916  32.0026995  21.9668868  67.3337697  32.3321559  22.4922672
  67.8741697  37.2678776   7.4294785  68.0144658  37.7651240   8.1323426
  68.3724229  36.5665071   7.5708999  67.9682777  37.2380755   7.5546364
  67.9041919  38.1345887   4.7587362  68.5386998  38.7306312   4.6936824
  67.9867530  37.8349345   5.5733232  68.0098470  38.1786795   4.8690448
  69.4820902  34.0659863   4.7332804  69.8036743  33.5862945   4.0792066
  69.7447846  34.8759509   4.5423616  69.5686927  34.1149761   4.6088296
  72.7117875  45.0878737  18.2531620  72.2042966  45.6414584  18.6972251
  72.4144521  45.1487027  17.4350395  72.5922760  45.1785048  18.1980077
  74.8780057  33.4532057  17.0956283  75.3035128  33.0004583  16.4839809
  74.2637050  32.8992127  17.3721070  74.8508702  33.3046033  17.0461308
  64.4094907  40.3313728   8.0276908  64.9187136  40.9278236   8.4088213
  64.8829179  40.0639702   7.3453328  64.5538283  40.3799543   7.9831431
  73.3174280  29.9247156  10.5046860  72.6742598  29.7744803  11.0731998
  72.9773687  29.6789502   9.7395965  73.1719357  29.8659279  10.4749875
  77.9073626  37.8806583   9.9276869  77.2364816  38.4236285   9.7989934
  78.6013376  38.3501439   9.6858563  77.9102494  38.0304854   9.8732396
  71.9560360  50.0203295  15.1588627  71.7326014  49.2622125  15.5272653
  71.4670203  50.0501316  14.4369067  71.8503809  49.9125520  15.1065368
  78.0701754  34.3362467  12.8367242  78.4229364  33.9092190  13.5113041
  77.2116555  34.2513310  12.9668318  77.9951198  34.2607208  12.9562252
  66.7685439  36.9669987  10.8950088  66.0497428  37.3834119  11.1622952
  67.1397801  37.5324225  10.3441727  66.7177370  37.1119268  10.8532895
  76.0685019  37.5997835  16.7852084  76.0482947  37.4181131  17.6386863
  76.1164220  38.4709854  16.7611668  76.0719660  37.7014374  16.9075379
  74.0131349  44.1885027  22.7100561  73.9727204  43.5434704  22.1245717
  74.8254667  44.1321645  23.0225973  74.1274503  44.0843994  22.6697510
  70.6038817  50.2403753  12.6125712  70.1899215  49.5777884  12.2229553
  71.2886191  50.3881612  12.0921406  70.6437188  50.1644412  12.4782209
  73.9704111  49.3993839  13.3649328  73.5720394  49.5096109  12.5970148
  73.3555330  49.6075905  13.9475888  73.8203000  49.4467407  13.3380627
  72.5432013  36.0067986   6.2323468  71.9496852  36.3284983   5.6808035
  72.5807291  35.1609082   6.0244574  72.4606402  35.9292315   6.1206239
  75.4189830  35.9647491   9.6625218  75.1903523  35.9880192   8.8203576
  75.6787906  35.1404958   9.7820229  75.4236018  35.8463571   9.5550416
  69.7009058  37.8181964  19.2650318  69.1887961  37.2103147  19.6235350
  69.5288554  38.5338557  19.7324294  69.5998695  37.8345263  19.3866542
  64.5474773  36.2619539  21.9152680  64.3777363  36.9220914  21.3700887
  64.1040723  36.4726101  22.6365169  64.4574106  36.3905521  21.9414310
  68.4734592  34.5024037  10.9579414  68.9491958  34.8641117  10.3229595
  67.9723192  35.1580505  11.2379556  68.4699951  34.6518226  10.9056155
  73.5778128  35.7406209  21.7052574  74.1349558  35.5120018  21.0731039
  73.2539193  36.5011874  21.4287786  73.6124538  35.8190045  21.5709071
  61.4476837  39.1666405  17.1741170  60.9003557  38.4967050  17.2922038
  62.2369215  38.7996253  17.2384637  61.4829021  39.0131391  17.2009870
  71.2961246  38.8273862  22.6704581  72.0472573  39.1425539  22.9844135
  71.4883822  38.6253033  21.8438503  71.4352660  38.8441244  22.5947977
  70.5161245  36.6465237   4.3252798  70.8960210  36.6644866   3.5403912
  69.7753841  37.0919226   4.2043645  70.4630083  36.7147012   4.1916366
  78.1446536  34.9547428   9.9128376  78.1440762  34.7996085  10.7712653
  77.9402716  35.8010415   9.8569762  78.1146314  35.0568049  10.0316316
  60.2063807  38.3787213  14.3287193  60.0285568  37.9263822  15.0542109
  59.9182829  39.1813374  14.5125670  60.1376760  38.4309770  14.4630696
  75.8687388  39.6344930  13.5664583  76.3641053  38.9167925  13.5268604
  75.0587163  39.3315728  13.4519070  75.8231281  39.4842576  13.5438309
  61.9436277  40.9114936  11.4408952  61.0781796  40.9000627  11.3291723
  62.0435092  40.7245159  12.2880091  61.8310443  40.8820998  11.5497896
  77.9339207  42.3848618  16.2541712  78.3594278  41.8623039  15.7012137
  77.5696126  42.9829455  15.7330335  77.9425809  42.3958845  16.0950722
  67.5693286  50.6812835  15.0139058  67.8839845  51.4949223  15.0216839
  67.9786700  50.2963054  15.6821217  67.6761384  50.7441537  15.1143149
  74.5217806  46.0982882  12.5842869  74.9928984  46.8123144  12.7532855
  74.8577985  45.4981632  13.1202739  74.6412921  46.1154346  12.6875245
  76.6094791  47.7084195  24.7634942  76.7191756  46.9192756  25.1191689
  76.9385687  47.6190131  23.9609280  76.6747196  47.5790048  24.6977332
  71.4387301  30.8710352  19.5400964  71.5715207  30.0741346  19.8681940
  71.8232454  31.3976755  20.1199240  71.5143630  30.8310269  19.6744467
  75.1591752  45.8900816  19.3470562  74.6112698  45.2658700  19.0790627
  75.6204781  46.0795088  18.6314642  75.1458962  45.8259866  19.2020993
  74.5119656  27.7940679  16.1382058  73.7065620  27.6838408  16.4549896
  74.3826392  27.8953134  15.2811923  74.3739789  27.7924349  16.0590098
  77.9685617  33.9586170  16.7321754  77.3848606  34.4595377  16.3199322
  78.2889911  33.4515727  16.0986078  77.9298792  33.9578005  16.5780262
  70.5080416  32.8726765   7.0080429  71.3296110  33.0425078   6.7662124
  70.0450067  33.0274026   6.2846727  70.5611578  32.9208498   6.8652074
  69.0975748  30.8669527  17.7878858  69.6420161  30.5260654  18.3783200
  69.1512684  31.7254989  17.9300143  69.1864867  30.9424787  17.8960731
  64.9106307  44.6285943  14.6617666  65.5151164  44.5881778  14.0331487
  64.7033619  45.4757096  14.6921722  64.9695204  44.7473946  14.5733782
  74.7250079  46.8951889  15.8779903  75.5448452  46.7514855  16.1396198
  74.4444156  47.5198088  16.4196341  74.8046822  46.9662241  15.9967843
  60.1457589  43.6120561  14.5316589  60.0481867  42.8016832  14.8406646
  60.9286459  43.5912354  14.1462857  60.2473725  43.4887651  14.5203452
  75.5813575  54.9231800  16.3955924  75.4572271  55.5094246  17.0305743
  76.2331859  54.4291996  16.6968199  75.6587224  54.9370605  16.5341854
  73.3256500  57.4343153  16.6437869  73.0594915  56.6182269  16.8028859
  73.3395064  57.4796308  15.7733384  73.2881222  57.3200057  16.5391351
  78.0755106  50.9721531  19.2904877  77.3826903  50.5018511  19.5365608
  78.6915433  50.7459835  19.8646584  78.0639636  50.8688663  19.4114029
  76.7995665  54.9386935  20.4331722  77.5235637  54.9239966  20.9196617
  76.9011801  55.6482290  19.9353690  76.9213874  55.0411638  20.4310509
  76.8474866  57.1179229  18.6215646  77.3595963  57.3963482  17.9724406
  76.5611208  57.8568523  18.9878459  76.8809729  57.2681582  18.5805524
  74.7505504  51.7396599  16.6600504  74.6090996  50.8880539  16.7845012
  75.0346068  51.7825259  15.8362710  74.7713350  51.6196349  16.5568128
  75.5195809  49.6526946  19.9777954  74.9837999  49.0407304  20.2938722
  75.5813574  50.2275082  20.6311621  75.4491442  49.6473874  20.1213381
  78.1419059  49.3648796  16.8233921  78.6020541  49.4387725  17.5609045
  78.1875166  50.1630050  16.4733743  78.2169614  49.4942943  16.8806678
  74.9306837  52.9937986  19.1985637  75.7932450  52.8933695  19.1122967
  74.5998620  52.4132696  18.6371210  75.0092033  52.8929613  19.1031043
  78.2908623  51.8180435  15.8596056  77.6661693  51.8298827  15.2522008
  77.9554218  52.2940610  16.5087296  78.1494115  51.8898952  15.8652624
  77.5599368  53.4273583  18.0770924  77.7192855  52.6716907  18.4822646
  77.3792262  53.9764523  18.7311662  77.5564727  53.3967397  18.2333630
  75.5207356  51.7804847  21.9152680  75.3509947  52.4406222  21.3700887
  75.0773306  51.9911408  22.6365169  75.4306690  51.9090829  21.9414310
  72.4209421  54.6851713  17.1741170  71.8736140  54.0152358  17.2922038
  73.2101799  54.3181561  17.2384637  72.4561604  54.5316699  17.2009870
  71.1796390  53.8972521  14.3287193  71.0018151  53.4449130  15.0542109
  70.8915412  54.6998682  14.5125670  71.1109343  53.9495078  14.4630696
   4.7116122  45.8722462  47.7668000   4.6810126  46.7267099  47.9386269
   5.3097471  45.5717755  48.3254143   4.7953280  45.9538959  47.8742802
   1.2209523  51.2284639  62.1281386   1.9276291  50.7336670  62.2568321
   1.4097459  51.6693721  61.3984044   1.3537429  51.2202989  62.0390432
   0.7567628  47.0190157  55.1652582   1.3023588  47.6975244  55.2246551
   0.6984504  46.8777618  54.3054163   0.8283542  47.0982159  55.0464642
   2.5332696  48.4474764  46.0386310   2.4172222  49.1982450  46.4678448
   3.3288583  48.1898718  46.2882397   2.6337286  48.5209611  46.1390401
   1.8468001  35.7962702  49.7360924   1.5321442  36.4866181  50.1681346
   1.3294943  35.7407484  49.0346425   1.7232472  35.8897591  49.6957873
   1.1880435  45.7967203  45.8498334   0.6591907  46.0126836  46.5095641
   1.7105455  46.4903341  45.7699304   1.1868888  45.9310340  45.9353934
   6.6428488  51.3713507  51.2231379   5.8126191  51.5824151  51.3864796
   6.5937740  50.5450562  50.9473663   6.5135224  51.2803114  51.2068744
   6.1382446  44.0183908  55.0181800   5.3010867  44.0886095  55.2529395
   6.1070677  44.0208403  54.1456103   6.0100729  44.0294135  54.9241348
   0.8612632  48.2139584  50.6093692   1.6170147  48.6471099  50.6482601
   0.9674957  47.5644354  51.1828328   0.9882803  48.1817068  50.6991717
   3.8992803  52.0412862  51.3596095   3.4628035  52.0449604  52.1155066
   3.5655719  52.7218361  50.9275672   3.7855423  52.1425318  51.4076927
   3.8190286  39.0826690  53.6025523   4.4616195  39.1524794  54.1887438
   4.0713307  38.4155912  53.1005065   3.9512418  38.9953038  53.6152802
   7.0337150  48.7593782  50.2515732   7.6953584  48.1984450  50.1511640
   6.3928561  48.2645812  50.5768423   7.0366017  48.6030191  50.2848072
   3.3201980  49.7759164  49.9927721   3.5557569  49.9204363  49.1654571
   3.4691544  50.5401572  50.3859234   3.3767783  49.9098218  49.9291325
   5.1492437  48.6160830  47.8297325   5.4800654  49.1488470  47.2237419
   5.7225525  48.6699718  48.4859276   5.2826116  48.7030399  47.8375106
   0.6147347  48.3074472  41.7457857   0.5327510  48.3776660  42.6112844
   1.2527068  48.8704216  41.5541597   0.6967185  48.4013444  41.8447806
   6.2571788  43.8571327  49.3337486   6.0008353  43.0451268  49.1435369
   7.1001102  43.8648894  49.1067674   6.3437814  43.7383324  49.2722303
   3.9396948  51.0120923  59.1696039   3.7035585  50.1808988  59.0508099
   4.5840177  50.9606530  59.7550883   3.9991619  50.8818611  59.2381932
   4.9633368  50.7965372  55.2324333   4.6579185  51.5293428  55.5937649
   4.2439584  50.3903301  54.9517119   4.8120711  50.8447105  55.2437470
  10.6635161  47.4358372  54.5592678  10.5959661  47.4554331  53.6895264
  10.6490823  48.2788700  54.7848348  10.6513917  47.5632107  54.4645154
   1.0731507  38.8393530  57.8833767   1.8185099  38.6503340  57.4697192
   0.6568812  39.3651768  57.3247623   1.1216481  38.8895675  57.7398340
   8.4493778  46.2102759  52.8339272   9.0001699  45.5770828  53.0736364
   8.4337893  46.7418151  53.5254776   8.5278974  46.1951707  52.9718130
   2.1522184  44.4499092  51.9443868   1.8086950  43.7289427  52.2951118
   2.2515227  44.2412943  51.1022226   2.1164227  44.3123295  51.8715548
   2.6135213  50.9124796  47.4867856   3.1793246  51.5718006  47.4026399
   1.9663117  51.2574494  47.9584258   2.6013970  51.0606738  47.5440613
   4.5470673  47.5758664  51.1064653   4.4604648  47.7314090  51.9599432
   4.0921153  48.2196739  50.7324058   4.4673930  47.6934419  51.1771760
   2.3144538  51.6052770  53.5176994   2.1758898  52.3033816  54.0225736
   1.5344536  51.4501427  53.1613175   2.1787765  51.6852937  53.5403268
   0.6522623  47.9049146  59.7699375   0.6470662  47.0328962  59.7741802
   1.3583617  48.1037315  59.2968831   0.7567627  47.8053020  59.7006411
   3.8097911  50.9631024  44.2793493   3.4304720  50.1768162  44.2722782
   3.1464156  51.5117881  44.1365137   3.6556386  50.9275848  44.2574290
   1.2642537  33.9056724  51.6827574   1.3826105  34.3633187  50.9494876
   1.0904713  33.1001985  51.3963791   1.2561708  33.8550496  51.5328507
   2.0558010  53.2076515  44.6145179   2.1377847  54.0143501  44.2906629
   2.5407752  53.2272474  45.3385952   2.1395168  53.3297177  44.6732077
   1.5633210  51.9673933  64.6963504   2.3768075  51.6959082  64.8568637
   1.4028176  51.6681473  63.8923700   1.6603159  51.8828859  64.6008910
   1.5754454  53.0280224  59.9686345   2.2134175  52.5340419  59.6348801
   0.9328546  52.9557624  59.3838572   1.5748681  52.9439232  59.8328700
   3.3011454  44.8769369  54.5352261   2.8739062  44.7895718  53.7800360
   2.6637507  44.9847145  55.1207105   3.1441061  44.8802029  54.5097702
   1.6308711  53.7200032  56.6091702   2.4201089  53.3689097  56.7293783
   1.8052309  54.5336420  56.3468336   1.7728992  53.7885889  56.5879570
   3.7376223  38.2841353  50.6510886   3.1250536  38.7711755  51.0364618
   3.8340398  37.6084844  51.1948537   3.6614120  38.2559661  50.7889744
   7.3801251  49.3558290  56.0788402   7.4384374  49.8044938  56.8248378
   6.7467718  49.7657102  55.6418482   7.2952546  49.4832024  56.1240950
   4.3322930  47.3774577  54.1654092   4.0921153  46.5380992  54.1696519
   4.8114937  47.4574744  54.8894866   4.3675114  47.2655977  54.2728894
   6.3328117  44.1576034  52.1183351   6.0937887  44.1171869  51.2804136
   6.4962018  45.0047186  52.2449072   6.3218421  44.2768119  52.0136833
   2.9374147  48.5425984  58.0488396   3.6608346  48.0898510  57.8699416
   2.6724110  48.8230649  57.2660724   3.0055421  48.5176952  57.9067112
   5.3709461  47.5052395  56.5518946   5.9627301  48.1449645  56.5837144
   5.8068456  46.8075431  56.8411013   5.5227892  47.4970745  56.5999779
   2.3958603  44.7197613  48.8522089   1.7249792  45.2627315  48.7235154
   3.0898353  45.1892469  48.6103783   2.3987470  44.8695884  48.7977616
   2.5586730  41.1753497  51.7612462   2.9114340  40.7483220  52.4358261
   1.7001531  41.0904340  51.8913538   2.4836175  41.0998237  51.8807472
   0.5569996  44.4388865  55.7097304   0.5367923  44.2572161  56.5632083
   0.6049197  45.3100884  55.6856888   0.5604637  44.5405404  55.8320599
   3.9910790  36.2971909  52.6896774   3.4841655  35.5901048  52.6217952
   4.7878224  35.9665098  52.8197851   4.0338029  36.1445060  52.6995769
   6.1930930  50.8136835  45.6737639   6.5764536  51.5628191  45.9035736
   5.3975043  51.0602655  45.4149628   6.1324712  50.9606529  45.6695212
   2.6331512  41.7938458  48.8373596   2.6325739  41.6387115  49.6957873
   2.4287692  42.6401445  48.7814982   2.6031290  41.8959079  48.9561536
   2.4224183  49.2239648  55.1786932   2.8479255  48.7014069  54.6257357
   2.0581103  49.8220485  54.6575555   2.4310786  49.2349875  55.0195942
   2.4570593  40.7977200  55.6566974   1.8733582  41.2986407  55.2444542
   2.7774887  40.2906757  55.0231298   2.4183768  40.7969035  55.5025482
  15.6848706  61.3907770  47.7668000  15.6542710  62.2452407  47.9386269
  16.2830054  61.0903063  48.3254143  15.7685863  61.4724267  47.8742802
   8.8848390  60.4783421  52.5220930   8.0286286  60.6391920  52.5730047
   8.9316044  59.6075485  52.5425991   8.7647502  60.3734223  52.5326996
  12.1942107  66.7469947  62.1281386  12.9008874  66.2521978  62.2568321
  12.3830042  67.1879028  61.3984044  12.3270012  66.7388297  62.0390432
  11.7300211  62.5375465  55.1652582  12.2756171  63.2160552  55.2246551
  11.6717088  62.3962926  54.3054163  11.8016126  62.6167467  55.0464642
  13.5065280  63.9660072  46.0386310  13.3904806  64.7167758  46.4678448
  14.3021167  63.7084026  46.2882397  13.6069869  64.0394919  46.1390401
   5.3895606  67.9554095  47.3255652   5.7111447  68.4959303  46.7216960
   6.0367702  67.3850867  47.4577942   5.5321661  67.9513271  47.2562687
   7.4397314  59.9570090  47.4090039   8.1377478  60.1358218  47.9011502
   7.7549646  59.4340430  46.7860428   7.5892651  59.9063862  47.3892049
   7.6285249  66.3440535  47.3969830   8.0678884  65.7357636  47.8424603
   7.4789912  65.9647909  46.6255295   7.6706715  66.1979006  47.3488997
   5.0956892  64.9384547  54.5988656   5.7405895  64.4456990  54.2799604
   5.3358669  65.0809334  55.4254734   5.2267477  64.8861989  54.6738189
   7.6342983  67.7839453  54.2495548   7.9166226  66.9890859  54.0282304
   8.3629144  68.2620040  54.2700609   7.7832547  67.7374050  54.2198563
   5.6124177  55.3262487  51.4911313   5.2827507  55.7773631  50.8215012
   4.9369179  55.2478650  52.0384320   5.4634613  55.3813622  51.4734537
  11.2294586  64.6967717  44.3500599  11.1445881  65.5528683  44.4950168
  11.7178969  64.4212041  45.0182758  11.2883483  64.7825038  44.4702681
  12.8200585  51.3148010  49.7360924  12.5054026  52.0051488  50.1681346
  12.3027527  51.2592792  49.0346425  12.6965055  51.4082898  49.6957873
  12.1613019  61.3152511  45.8498334  11.6324490  61.5312144  46.5095641
  12.6838039  62.0088649  45.7699304  12.1601472  61.4495648  45.9353934
  17.6161072  66.8898815  51.2231379  16.7858775  67.1009459  51.3864796
  17.5670324  66.0635870  50.9473663  17.4867807  66.7988422  51.2068744
   4.0512627  65.2115728  44.6505802   3.4669842  65.7165759  45.0571666
   3.6482722  64.9858114  43.9102394   3.9051930  65.2523976  44.6010828
   9.3334401  70.1697483  60.0195462   9.4217747  69.9823624  60.8673672
   9.7624114  69.5234913  59.6200308   9.4096504  70.0460491  60.0867213
   8.5089841  61.4581380  43.1274723   8.7485845  61.6659363  42.3150066
   8.8305682  60.6538888  43.2363668   8.5926999  61.3695481  43.0235276
   3.8180131  53.3874775  46.9734261   4.5726099  53.7553092  46.7351311
   3.6407666  53.7614330  47.7413441   3.9034610  53.4972963  47.0519150
  17.1115030  59.5369216  55.0181800  16.2743451  59.6071403  55.2529395
  17.0803261  59.5393711  54.1456103  16.9833312  59.5479443  54.9241348
   3.5079759  61.6802252  60.7330169   3.6800263  61.5708146  61.5815450
   4.0449117  62.3256657  60.4961361   3.6124763  61.7594253  60.8235266
   2.1737196  55.7945094  43.6712374   1.9912769  56.0116975  42.8453367
   3.0362809  55.9084107  43.7270988   2.2741785  55.8434992  43.5566861
   1.7851628  67.6333017  51.1135362   2.6240527  67.8655949  51.1609123
   1.8163397  66.7637328  51.0442397   1.9133345  67.5389963  51.1100007
   7.8536915  52.7971505  46.7061398   8.5823076  52.6187460  46.2599554
   7.9431808  53.6389585  46.9168576   7.9743577  52.8955383  46.6714915
  11.8345216  63.7324892  50.6093692  12.5902731  64.1656407  50.6482601
  11.9407540  63.0829662  51.1828328  11.9615386  63.7002376  50.6991717
  14.8725387  67.5598170  51.3596095  14.4360619  67.5634912  52.1155066
  14.5388302  68.2403669  50.9275672  14.7588007  67.6610625  51.4076927
  14.7922870  54.6011997  53.6025523  15.4348778  54.6710102  54.1887438
  15.0445891  53.9341220  53.1005065  14.9245002  54.5138346  53.6152802
   1.7199223  59.0719267  42.1834847   1.0057400  58.7857447  42.5957280
   2.2043192  59.4115893  42.8241235   1.6858586  59.0800917  42.3390482
   2.5640082  57.8112561  58.2150097   1.8711879  57.3409541  58.4610828
   3.1800410  57.5850865  58.7891804   2.5524612  57.7079693  58.3359249
  18.0069733  64.2779090  50.2515732  18.6686167  63.7169758  50.1511640
  17.3661145  63.7831120  50.5768423  18.0098601  64.1215499  50.2848072
   8.8946541  67.5749221  42.5596655   9.3097689  67.2434245  41.8681151
   8.0638470  67.3418123  42.4316792   8.8334550  67.4920477  42.4387503
  14.2934564  65.2944472  49.9927721  14.5290153  65.4389671  49.1654571
  14.4424127  66.0586880  50.3859234  14.3500367  65.4283526  49.9291325
   1.2880641  61.7777965  59.3576942   2.0120614  61.7630996  59.8441837
   1.3896778  62.4873320  58.8598910   1.4098850  61.8802668  59.3555729
  16.1225021  64.1346138  47.8297325  16.4533238  64.6673778  47.2237419
  16.6958109  64.1885026  48.4859276  16.2558700  64.2215707  47.8375106
  11.3356910  61.9811041  48.5120905  11.4303764  62.7200335  48.9660530
  10.7115753  61.5528516  48.9455469  11.2565940  62.0272361  48.6429052
   9.5909384  65.1597253  59.1611186  10.1648245  64.5224497  59.3159749
   9.5124187  65.1601336  58.2920843   9.6642618  65.0662365  59.0557596
  11.5879931  63.8259780  41.7457857  11.5060094  63.8961968  42.6112844
  12.2259651  64.3889524  41.5541597  11.6699768  63.9198751  41.8447806
   4.9473102  63.5920518  51.2132383   4.6892346  62.7592253  51.1863682
   5.0021585  63.8178131  50.3724883   4.9172880  63.5018290  51.0852520
  10.0274152  55.6948969  51.3136476   9.3230479  55.2058155  51.4720395
  10.0759127  55.7071443  50.4424920   9.9304204  55.6238617  51.2075815
   3.9207814  61.1458281  51.6997278   3.3457406  61.3050449  52.3361239
   3.5443491  60.5093690  51.2365728   3.7810627  61.0756094  51.7251836
   7.5881103  59.6181630  56.5589656   7.1995536  59.1935848  55.9041847
   6.9235801  59.8663780  57.0666683   7.4328031  59.5920351  56.5377524
  17.2304372  59.3756635  49.3337486  16.9740937  58.5636576  49.1435369
  18.0733686  59.3834202  49.1067674  17.3170397  59.2568632  49.2722303
  11.4107464  53.3156259  54.0713640  11.7917976  52.6334430  54.4581515
  10.6070749  53.0265861  53.8889305  11.3483926  53.1723307  54.1017696
   8.6920041  63.8480235  44.7566463   9.5060680  64.1395127  44.6449234
   8.6279182  63.1940097  44.1824756   8.8022780  63.7945429  44.6555300
  14.9129531  66.5306231  59.1696039  14.6768169  65.6994296  59.0508099
  15.5572760  66.4791838  59.7550883  14.9724202  66.4003919  59.2381932
   4.5627949  67.3201752  49.8838775   5.2001896  67.0813500  50.4290569
   4.9883021  67.5238911  49.1491936   4.7204116  67.3152762  49.8555933
   5.2030764  62.5404042  44.2213665   5.5875917  62.3211749  44.9730210
   4.9542385  63.3666987  44.3514741   5.2232837  62.6302188  44.3514741
   5.3699305  55.8210457  63.9376249   5.0552746  56.5910020  63.6745812
   5.0489237  55.2580713  63.3528476   5.2758224  55.8520726  63.8117599
  15.9365952  66.3150680  55.2324333  15.6311769  67.0478736  55.5937649
  15.2172168  65.9088609  54.9517119  15.7853294  66.3632413  55.2437470
   6.9449421  67.7974175  51.5632561   7.0188430  67.6349347  52.4174411
   7.7618928  67.9864364  51.3193043   7.0765780  67.8010917  51.6530587
  21.6367744  62.9543680  54.5592678  21.5692244  62.9739639  53.6895264
  21.6223407  63.7974007  54.7848348  21.6246501  63.0817415  54.4645154
   2.9231202  54.2100979  49.5522445   2.0553627  54.2823578  49.6180054
   3.2106406  55.0123058  49.7410420   2.8370950  54.3395126  49.5897212
  12.0464091  54.3578838  57.8833767  12.7917683  54.1688648  57.4697192
  11.6301395  54.8837076  57.3247623  12.0949065  54.4080983  57.7398340
  19.4226361  61.7288066  52.8339272  19.9734283  61.0956136  53.0736364
  19.4070477  62.2603459  53.5254776  19.5011558  61.7137015  52.9718130
   6.0748752  65.5626664  57.3799165   5.5760446  66.2742431  57.4584054
   6.8848977  65.8827330  57.3417328   6.1204859  65.7153512  57.3855734
   2.3376870  64.8249617  51.6261886   2.0490119  64.1987088  52.1607614
   3.2060218  64.7669904  51.6926567   2.4237122  64.7237161  51.7152841
  13.1254768  59.9684400  51.9443868  12.7819534  59.2474735  52.2951118
  13.2247810  59.7598251  51.1022226  13.0896811  59.8308603  51.8715548
   2.5409143  66.4644868  47.5504251   3.2955111  66.8457907  47.7639714
   1.9479756  66.9156011  48.0050948   2.5645857  66.5873695  47.6487130
  13.5867797  66.4310104  47.4867856  14.1525829  67.0903314  47.4026399
  12.9395700  66.7759802  47.9584258  13.5746553  66.5792046  47.5440613
   5.0015810  58.4207708  62.6761464   4.1915586  58.7265488  62.5651306
   5.4790497  59.1413290  62.7914048   4.9519289  58.5722309  62.6768535
   3.8607370  67.6353429  52.9244367   3.3388123  67.7753721  53.6096231
   4.2481390  66.8764093  53.1146484   3.8411071  67.5438953  53.0545443
   0.8498554  57.6859238  46.9939321   0.5623350  57.3160508  46.2571269
   1.5369022  58.1554093  46.7323026   0.9087451  57.7006207  46.8454397
  10.0574375  69.3748888  46.9104935   9.8161051  68.6416749  46.5032000
  10.2375708  69.9235745  46.2571269  10.0481999  69.3471280  46.7535158
   5.2873695  64.6657448  48.3225858   5.0916478  65.2732183  47.7286161
   5.5108041  63.9725392  47.8417532   5.2908337  64.6534974  48.1641939
   3.6852225  61.5512186  48.4406726   4.4074877  61.7153344  47.9810532
   3.2060218  62.2721851  48.3346066   3.7215956  61.6810416  48.3572340
  11.6445733  57.8875985  53.8203411  10.8056834  57.9137264  53.5841674
  11.7150100  58.5346720  54.4008758  11.5314127  57.9872111  53.8712528
  10.0915011  54.7861362  48.5531027  10.7941364  54.5869110  48.0750985
   9.8259200  54.0137304  48.8599870  10.1561644  54.6424328  48.5276469
  15.5203257  63.0943972  51.1064653  15.4337231  63.2499398  51.9599432
  15.0653737  63.7382047  50.7324058  15.4406514  63.2119727  51.1771760
   4.8543568  56.0496647  57.6061908   4.6626765  56.0651782  58.4561331
   5.7042164  56.2460321  57.5828562   4.9519290  56.0810998  57.7285202
   9.3929073  60.4154719  49.7290212   9.1463787  60.3350470  50.5627001
   9.7214196  59.6308187  49.5352740   9.4050317  60.2880984  49.8237735
  13.2877122  67.1238078  53.5176994  13.1491481  67.8219124  54.0225736
  12.5077120  66.9686735  53.1613175  13.1520349  67.2038245  53.5403268
  11.6255207  63.4234453  59.7699375  11.6203245  62.5514270  59.7741802
  12.3316201  63.6222623  59.2968831  11.7300211  63.3238328  59.7006411
   5.3526100  63.1511437  59.1413195   5.4969476  63.7312646  58.5056305
   5.7001749  63.5287734  59.8463050   5.4253562  63.2932141  59.1512190
   7.5246018  62.3501606  56.9238327   6.7769332  62.5432620  56.5186605
   7.6787543  61.5246825  56.6862448   7.4368445  62.2566717  56.8283733
  14.7830495  66.4816332  44.2793493  14.4037303  65.6953470  44.2722782
  14.1196740  67.0303189  44.1365137  14.6288969  66.4461156  44.2574290
   7.7647795  56.2452156  57.8133731   8.2220409  56.9776131  57.9406523
   7.8404123  55.8218622  58.5720987   7.8438764  56.2909395  57.9434807
  12.2375121  49.4242032  51.6827574  12.3558689  49.8818495  50.9494876
  12.0637296  48.6187293  51.3963791  12.2294292  49.3735804  51.5328507
   5.6430173  58.2354260  54.6575555   4.8526247  58.0545720  54.9792891
   6.0390795  57.4581213  54.6405849   5.5847049  58.0941721  54.7028103
  10.1296063  67.0642035  40.0982268  10.8969048  67.1242160  39.6888120
   9.6827372  66.4922476  39.6138587  10.1769491  66.9878610  39.9659979
  11.0273859  65.8696691  52.3835001  10.3518861  65.6381923  52.8848388
  11.0366235  65.2617873  51.7577106  10.9292363  65.7455616  52.3651153
   8.1568003  60.7114519  59.1399054   8.0927144  61.5724476  59.0119190
   8.2965191  60.3946513  58.3394605   8.1683473  60.7914686  59.0027267
  13.0290593  68.7261823  44.6145179  13.1110431  69.5328809  44.2906629
  13.5140336  68.7457782  45.3385952  13.1127751  68.8482485  44.6732077
   6.8387097  63.4046659  53.2815257   6.4149346  63.6051158  52.5454275
   6.6631952  62.5575507  53.3939556   6.7497977  63.3095440  53.1888947
   2.1269542  63.8998710  48.7143229   2.2834161  63.8345513  49.5699221
   2.4670135  64.6747263  48.5021909   2.2002777  64.0047908  48.8097823
   8.6648686  63.2756594  47.5836592   9.2064232  62.7726975  48.0475213
   8.9795245  63.2221789  46.7726078   8.7913083  63.1936015  47.5320404
  12.5365794  67.4859241  64.6963504  13.3500659  67.2144390  64.8568637
  12.3760760  67.1866781  63.8923700  12.6335742  67.4014167  64.6008910
   6.8335136  68.6673945  44.8676620   6.9027956  67.8088484  45.0069621
   7.6123591  68.8845826  44.5395645   6.9587986  68.5726809  44.8393778
   9.8137956  58.1692898  57.6358893  10.0279925  57.5303813  57.0822247
   9.1971855  58.6138722  57.2066755   9.7543285  58.1403042  57.4909324
  11.9777044  59.7781964  58.5742200  11.1653725  59.4707854  58.6555373
  12.4366978  59.2980964  59.1384912  11.9257428  59.6618456  58.6696794
  11.3882298  67.6561636  49.0219144  11.0296953  67.8276278  49.7983177
  10.9021009  68.1174841  48.4647143  11.2640995  67.7500607  49.0544413
   9.2052684  51.2792834  52.6246236   8.3346242  51.2531555  52.5779545
   9.4593026  51.1070026  51.8072081   9.1146244  51.2502978  52.4966372
   6.1770664  63.3360801  41.5619379   6.4663189  64.1125683  41.8362953
   6.2642463  62.8249532  42.2633878   6.2324920  63.3752719  41.7061876
   9.0730551  61.1842035  63.3570902   9.5430182  61.8084151  63.7438776
   9.1192431  60.5159011  63.9164117   9.1498427  61.1776715  63.4970974
   6.2301825  53.2899062  54.0819706   5.7140313  52.5979254  54.2071285
   5.6695754  53.9569839  54.0282305   6.0708338  53.2862320  54.0925772
   8.2994058  53.8292022  55.9112559   7.9125811  53.8541054  56.6926088
   7.8126996  53.2633701  55.4587075   8.1706567  53.7487773  55.9600462
  12.5487038  68.5465531  59.9686345  13.1866758  68.0525727  59.6348801
  11.9061129  68.4742932  59.3838572  12.5481264  68.4624540  59.8328700
  14.2744038  60.3954677  54.5352261  13.8471646  60.3081026  53.7800360
  13.6370091  60.5032453  55.1207105  14.1173645  60.3987337  54.5097702
   7.9651200  50.7159008  58.2022818   8.5944318  51.2519308  57.9243889
   8.1337063  50.6236367  59.0536384   8.0828995  50.7820370  58.2871347
   7.7665115  55.5030203  60.4749230   8.5938544  55.2315352  60.5307844
   7.7872961  56.2991044  60.8313048   7.8917965  55.5809957  60.5364413
  12.6041294  69.2385340  56.6091702  13.3933672  68.8874404  56.7293783
  12.7784892  70.0521728  56.3468336  12.7461576  69.3071197  56.5879570
   2.3434605  62.6494065  53.6619491   1.5022611  62.5497940  53.8698385
   2.5524613  63.4189546  54.0133811   2.2499297  62.7486109  53.7446806
  11.4575118  53.2494896  51.1708120  11.6624712  53.1817204  52.0165117
  11.1301542  54.0553718  51.1029298  11.4390366  53.3580837  51.2867775
   6.1551270  60.5775465  52.9117088   5.8514407  60.0231453  53.5127496
   5.4530690  60.7567675  52.4245122   6.0067479  60.5220247  52.9286794
   5.2117367  57.8875984  47.4761790   5.4877101  57.1694897  47.0639358
   5.8116036  58.4860904  47.2682896   5.3410631  57.8696355  47.3842551
  14.7108806  53.8026661  50.6510886  14.0983120  54.2897063  51.0364618
  14.8072981  53.1270152  51.1948537  14.6346704  53.7744969  50.7889744
   8.7127887  55.5589502  45.7508385   9.1671634  55.7300062  46.4756230
   9.1867933  54.9457613  45.3506161   8.8496207  55.4940387  45.7982147
   2.2343413  65.0437828  55.0811124   1.6431346  65.6847326  55.0514139
   2.9964436  65.4675445  55.0542423   2.2591673  65.2013666  55.0726271
   2.6304035  56.2039826  55.7479141   3.0905517  56.2778755  56.4854265
   2.6760142  57.0021080  55.3978963   2.7054591  56.3333973  55.8051898
   4.2787385  56.8706520  60.3151168   3.8872950  56.2239868  60.7506946
   4.4473248  57.4617956  60.9345424   4.2458295  56.8620788  60.4713874
  18.3533834  64.8743597  56.0788402  18.4116958  65.3230246  56.8248378
  17.7200302  65.2842410  55.6418482  18.2685129  65.0017332  56.1240950
  11.9932929  70.4947139  52.5143148  11.7952617  70.9837954  51.8199359
  11.3720640  70.6988381  53.0927281  11.8720493  70.5963678  52.4966371
   6.0540907  62.2632036  46.8553392   6.7982952  62.6506312  47.0936342
   6.2001603  61.4189462  47.0193880   6.1851492  62.1962509  46.9147362
   7.9720483  54.0582295  51.8885254   7.1256528  54.2305103  51.7626604
   7.9691615  53.2531639  52.2251082   7.8467633  53.9643324  51.9196381
   9.0418783  57.8357509  52.7547312   8.5678737  57.3099272  53.2652623
   9.4136919  57.2886982  52.1862173   9.0268672  57.6773506  52.7462459
  15.3055514  62.8959885  54.1654092  15.0653737  62.0566300  54.1696519
  15.7847521  62.9760052  54.8894866  15.3407697  62.7841285  54.2728894
  10.9702283  58.7294064  45.8173065  10.4425301  58.8122808  45.1278774
  11.4297991  59.4711936  45.8137710  10.9604133  58.8514726  45.7147761
  17.3060701  59.6761342  52.1183351  17.0670471  59.6357177  51.2804136
  17.4694602  60.5232494  52.2449072  17.2951004  59.7953427  52.0136833
  13.9106731  64.0611292  58.0488396  14.6340930  63.6083818  57.8699416
  13.6456693  64.3415957  57.2660724  13.9788004  64.0362260  57.9067112
   2.7793599  58.6571465  54.7841276   2.1546669  58.6689857  54.1767228
   2.4439194  59.1331640  55.4332516   2.6379091  58.7289982  54.7897844
   2.9635348  56.9996584  40.8413961   2.6148152  57.6516309  41.3045510
   2.4831794  56.9853697  40.1137832   2.8405592  57.0939637  40.8025052
  10.5239365  67.2997628  44.9482722  11.2473564  67.7655741  44.8047296
  10.0839956  67.3671237  44.1980319  10.5655057  67.3781464  44.8167504
   9.6925520  64.1595170  56.1983411   9.0782513  63.6153220  56.4932047
  10.2092805  63.6459406  55.7189228   9.6781183  64.0031579  56.1707640
   8.9321817  65.2299440  53.9327710   8.5049425  64.6049159  53.4993146
   8.9246762  64.9474362  54.7586717   8.8680959  65.0952221  53.9907538
   2.0484345  60.2664613  57.0016144   2.2077831  59.5107937  57.4067866
   1.8677238  60.8155553  57.6556882   2.0449704  60.2358427  57.1578850
   9.9904648  52.4325849  57.5566934   9.4945209  52.6289523  56.8658500
  10.7473710  52.8318517  57.3855735  10.0291472  52.5203582  57.4287070
   7.2607527  56.1068194  54.1470244   7.2850014  55.5728307  53.4583024
   7.5119001  55.5985503  54.8095835   7.3017446  55.9529098  54.1434889
   3.5408849  54.8339013  53.5275988   3.5807221  55.3348219  54.2410696
   2.7158514  54.9249406  53.2581911   3.4248375  54.9220829  53.5926527
   4.9623213  61.3499523  55.8249887   4.1315142  61.5173341  55.6185136
   4.9074730  60.9735473  56.6098773   4.8312628  61.3189254  55.9098416
   2.7706996  54.8408415  61.4606298   3.3959699  54.2970548  61.7335730
   2.3157476  54.3603333  60.8914089   2.7955257  54.6897897  61.4167892
   3.3359257  59.6255114  46.3540005   3.4762218  60.1227578  47.0568646
   3.8341789  58.9241408  46.4954219   3.4300337  59.5957093  46.4791584
   3.3659479  60.4922225  43.6832582   4.0004558  61.0882650  43.6182044
   3.4485090  60.1925683  44.4978452   3.4716030  60.5363133  43.7935669
  16.3442045  63.0237702  56.5518946  16.9359885  63.6634953  56.5837144
  16.7801039  62.3260739  56.8411013  16.4960476  63.0156053  56.5999779
   4.9438462  56.4236201  43.6578024   5.2654303  55.9439283  43.0037286
   5.2065406  57.2335847  43.4668836   5.0304487  56.4726098  43.5333516
   8.1735435  67.4455075  57.1776840   7.6660526  67.9990922  57.6217471
   7.8762081  67.5063365  56.3595615   8.0540320  67.5361386  57.1225297
  10.3397617  55.8108395  56.0201503  10.7652688  55.3580921  55.4085029
   9.7254610  55.2568465  56.2966291  10.3126262  55.6622371  55.9706528
   8.7791840  52.2823494  49.4292080   8.1360158  52.1321141  49.9977219
   8.4391247  52.0365840  48.6641185   8.6336917  52.2235617  49.3995095
  13.3691186  60.2382921  48.8522089  12.6982376  60.7812623  48.7235154
  14.0630936  60.7077776  48.6103783  13.3720054  60.3881192  48.7977616
  13.5319314  56.6938805  51.7612462  13.8846924  56.2668528  52.4358261
  12.6734115  56.6089648  51.8913538  13.4568758  56.6183545  51.8807472
   2.2302999  59.3246324  49.8195308   1.5114988  59.7410457  50.0868172
   2.6015361  59.8900563  49.2686947   2.1794930  59.4695606  49.7778115
  11.5302579  59.9574173  55.7097304  11.5100507  59.7757469  56.5632083
  11.5781780  60.8286192  55.6856888  11.5337220  60.0590712  55.8320599
   9.4748909  66.5461365  61.6345781   9.4344764  65.9011042  61.0490937
  10.2872227  66.4897983  61.9471193   9.5892063  66.4420332  61.5942730
   8.0049573  58.3644324  45.1568688   7.4114412  58.6861321  44.6053255
   8.0424851  57.5185420  44.9489794   7.9223962  58.2868653  45.0451459
  14.9643374  51.8157217  52.6896774  14.4574238  51.1086356  52.6217952
  15.7610807  51.4850405  52.8197851  15.0070613  51.6630368  52.6995769
  10.8807390  58.3223829  48.5870438  10.6521083  58.3456530  47.7448796
  11.1405466  57.4981296  48.7065449  10.8853578  58.2039909  48.4795636
   5.1626618  60.1758302  58.1895538   4.6505521  59.5679485  58.5480570
   4.9906114  60.8914894  58.6569514   5.0616255  60.1921601  58.3111762
   3.9352152  56.8600375  49.8824634   4.4109518  57.2217455  49.2474815
   3.4340752  57.5156843  50.1624776   3.9317511  57.0094564  49.8301375
  17.1663514  66.3322143  45.6737639  17.5497119  67.0813499  45.9035736
  16.3707627  66.5787963  45.4149628  17.1057296  66.4791837  45.6695212
   9.0395688  58.0982547  60.6297794   9.5967118  57.8696356  59.9976259
   8.7156753  58.8588212  60.3533006   9.0742098  58.1766383  60.4954291
   6.7578806  61.1850200  61.5949801   7.5090133  61.5001877  61.9089355
   6.9501382  60.9829371  60.7683723   6.8970220  61.2017582  61.5193197
   5.9778805  59.0041575  43.2498018   6.3577770  59.0221204  42.4649132
   5.2371401  59.4495564  43.1288865   5.9247643  59.0723350  43.1161586
  13.6064096  57.3123766  48.8373596  13.6058322  57.1572423  49.6957873
  13.4020276  58.1586753  48.7814982  13.5763874  57.4144387  48.9561536
  11.3304948  61.9921268  52.4909803  11.8258613  61.2744263  52.4513824
  10.5204723  61.6892066  52.3764290  11.2848841  61.8418914  52.4683529
   6.7763559  65.8419081  44.6406808   5.9674882  65.5185755  44.5940117
   7.2838468  65.1352303  44.5735056   6.7313226  65.6900398  44.6237102
  13.3956767  64.7424955  55.1786932  13.8211838  64.2199377  54.6257357
  13.0313686  65.3405793  54.6575555  13.4043369  64.7535182  55.0195942
   9.9835366  68.4559220  51.5088089  10.4546544  69.1699482  51.6778075
  10.3195545  67.8557970  52.0447959  10.1030481  68.4730684  51.6120465
   6.9004861  53.2286690  58.4646184   7.0332767  52.4317684  58.7927160
   7.2850014  53.7553093  59.0444460   6.9761190  53.1886607  58.5989687
  10.6209312  68.2477154  58.2715782  10.0730258  67.6235037  58.0035847
  11.0822341  68.4371426  57.5559862  10.6076522  68.1836204  58.1266213
   9.9737216  50.1517016  55.0627278   9.1683180  50.0414746  55.3795116
   9.8443952  50.2529472  54.2057143   9.8357349  50.1500686  54.9835318
  13.4303177  56.3162508  55.6566974  12.8466166  56.8171715  55.2444542
  13.7507471  55.8092065  55.0231298  13.3916352  56.3154343  55.5025482
   5.9697976  55.2303103  45.9325649   6.7913670  55.4001416  45.6907344
   5.5067627  55.3850364  45.2091947   6.0229138  55.2784836  45.7897294
   4.5593308  53.2245865  56.7124078   5.1037721  52.8836992  57.3028420
   4.6130244  54.0831327  56.8545363   4.6482427  53.3001125  56.8205951
  10.1867639  69.2528227  54.8025123  11.0066012  69.1091193  55.0641419
   9.9061716  69.8774425  55.3441561  10.2664382  69.3238579  54.9213063
  16.5856761  70.8447795  51.4911313  16.2560091  71.2958938  50.8215012
  15.9101763  70.7663958  52.0384320  16.4367197  70.8998930  51.4734537
  23.7933169  66.8333318  49.7360924  23.4786610  67.5236796  50.1681346
  23.2760110  66.7778100  49.0346425  23.6697639  66.9268206  49.6957873
  14.7912715  68.9060083  46.9734261  15.5458683  69.2738400  46.7351311
  14.6140249  69.2799638  47.7413441  14.8767193  69.0158271  47.0519150
  28.0847614  75.0554524  55.0181800  27.2476035  75.1256711  55.2529395
  28.0535844  75.0579019  54.1456103  27.9565896  75.0664751  54.9241348
  13.1469779  71.3130402  43.6712374  12.9645353  71.5302283  42.8453367
  14.0095392  71.4269415  43.7270988  13.2474369  71.3620300  43.5566861
  18.8269499  68.3156813  46.7061398  19.5555659  68.1372768  46.2599554
  18.9164392  69.1574893  46.9168576  18.9476161  68.4140691  46.6714915
  25.7655453  70.1197305  53.6025523  26.4081362  70.1895410  54.1887438
  26.0178474  69.4526528  53.1005065  25.8977585  70.0323654  53.6152802
  21.0006736  71.2134277  51.3136476  20.2963063  70.7243462  51.4720395
  21.0491710  71.2256751  50.4424920  20.9036787  71.1423925  51.2075815
  28.2036956  74.8941943  49.3337486  27.9473520  74.0821884  49.1435369
  29.0466270  74.9019510  49.1067674  28.2902981  74.7753940  49.2722303
  22.3840048  68.8341567  54.0713640  22.7650560  68.1519738  54.4581515
  21.5803332  68.5451169  53.8889305  22.3216510  68.6908615  54.1017696
  16.3431888  71.3395765  63.9376249  16.0285330  72.1095328  63.6745812
  16.0221821  70.7766021  63.3528476  16.2490808  71.3706034  63.8117599
  13.8963785  69.7286287  49.5522445  13.0286211  69.8008886  49.6180054
  14.1838990  70.5308365  49.7410420  13.8103534  69.8580434  49.5897212
  23.0196674  69.8764146  57.8833767  23.7650266  69.6873956  57.4697192
  22.6033979  70.4022384  57.3247623  23.0681648  69.9266291  57.7398340
  30.3958945  77.2473374  52.8339272  30.9466867  76.6141443  53.0736364
  30.3803060  77.7788767  53.5254776  30.4744141  77.2322323  52.9718130
  24.0987351  75.4869708  51.9443868  23.7552117  74.7660043  52.2951118
  24.1980394  75.2783559  51.1022226  24.0629394  75.3493911  51.8715548
  22.6178317  73.4061293  53.8203411  21.7789417  73.4322572  53.5841674
  22.6882684  74.0532028  54.4008758  22.5046710  73.5057419  53.8712528
  21.0647595  70.3046670  48.5531027  21.7673948  70.1054418  48.0750985
  20.7991784  69.5322612  48.8599870  21.1294227  70.1609636  48.5276469
  15.8276151  71.5681955  57.6061908  15.6359348  71.5837089  58.4561331
  16.6774747  71.7645629  57.5828562  15.9251873  71.5996306  57.7285202
  18.7380378  71.7637464  57.8133731  19.1952992  72.4961439  57.9406523
  18.8136707  71.3403930  58.5720987  18.8171348  71.8094702  57.9434807
  23.2107704  64.9427340  51.6827574  23.3291272  65.4003803  50.9494876
  23.0369880  64.1372601  51.3963791  23.2026875  64.8921112  51.5328507
  20.7870539  73.6878206  57.6358893  21.0012509  73.0489120  57.0822247
  20.1704438  74.1324030  57.2066755  20.7275869  73.6588350  57.4909324
  22.9509627  75.2967271  58.5742200  22.1386309  74.9893162  58.6555373
  23.4099562  74.8166272  59.1384912  22.8990012  75.1803764  58.6696794
  20.1785268  66.7978142  52.6246236  19.3078826  66.7716863  52.5779545
  20.4325609  66.6255334  51.8072081  20.0878828  66.7688286  52.4966372
  17.2034408  68.8084370  54.0819706  16.6872897  68.1164562  54.2071285
  16.6428337  69.4755147  54.0282305  17.0440922  68.8047628  54.0925772
  19.2726642  69.3477330  55.9112559  18.8858395  69.3726362  56.6926088
  18.7859579  68.7819009  55.4587075  19.1439151  69.2673081  55.9600462
  18.9383784  66.2344316  58.2022818  19.5676902  66.7704616  57.9243889
  19.1069646  66.1421675  59.0536384  19.0561578  66.3005678  58.2871347
  18.7397698  71.0215511  60.4749230  19.5671128  70.7500659  60.5307844
  18.7605545  71.8176352  60.8313048  18.8650549  71.0995265  60.5364413
  22.4307702  68.7680204  51.1708120  22.6357295  68.7002512  52.0165117
  22.1034126  69.5739026  51.1029298  22.4122950  68.8766145  51.2867775
  25.6841390  69.3211969  50.6510886  25.0715703  69.8082371  51.0364618
  25.7805565  68.6455459  51.1948537  25.6079287  69.2930277  50.7889744
  19.6860471  71.0774810  45.7508385  20.1404217  71.2485370  46.4756230
  20.1600517  70.4642920  45.3506161  19.8228791  71.0125695  45.7982147
  18.9453066  69.5767603  51.8885254  18.0989111  69.7490411  51.7626604
  18.9424199  68.7716947  52.2251082  18.8200216  69.4828632  51.9196381
  20.0151367  73.3542817  52.7547312  19.5411321  72.8284579  53.2652623
  20.3869502  72.8072290  52.1862173  20.0001256  73.1958814  52.7462459
  21.9434866  74.2479372  45.8173065  21.4157885  74.3308116  45.1278774
  22.4030574  74.9897243  45.8137710  21.9336717  74.3700034  45.7147761
  28.2793284  75.1946650  52.1183351  28.0403054  75.1542484  51.2804136
  28.4427185  76.0417802  52.2449072  28.2683588  75.3138735  52.0136833
  20.9637231  67.9511156  57.5566934  20.4677792  68.1474831  56.8658500
  21.7206293  68.3503825  57.3855735  21.0024056  68.0388890  57.4287070
  18.2340111  71.6253502  54.1470244  18.2582598  71.0913615  53.4583024
  18.4851584  71.1170811  54.8095835  18.2750029  71.4714406  54.1434889
  14.5141433  70.3524321  53.5275988  14.5539805  70.8533527  54.2410696
  13.6891098  70.4434714  53.2581911  14.3980959  70.4406137  53.5926527
  13.7439580  70.3593723  61.4606298  14.3692283  69.8155856  61.7335730
  13.2890060  69.8788641  60.8914089  13.7687840  70.2083205  61.4167892
  15.9171045  71.9421508  43.6578024  16.2386886  71.4624591  43.0037286
  16.1797989  72.7521155  43.4668836  16.0037071  71.9911406  43.5333516
  21.3130200  71.3293702  56.0201503  21.7385272  70.8766229  55.4085029
  20.6987193  70.7753773  56.2966291  21.2858846  71.1807679  55.9706528
  19.7524423  67.8008802  49.4292080  19.1092741  67.6506449  49.9977219
  19.4123830  67.5551147  48.6641185  19.6069501  67.7420925  49.3995095
  24.5051897  72.2124113  51.7612462  24.8579507  71.7853836  52.4358261
  23.6466699  72.1274956  51.8913538  24.4301342  72.1368853  51.8807472
  25.9375957  67.3342525  52.6896774  25.4306822  66.6271664  52.6217952
  26.7343391  67.0035713  52.8197851  25.9803196  67.1815676  52.6995769
  21.8539973  73.8409137  48.5870438  21.6253666  73.8641838  47.7448796
  22.1138049  73.0166604  48.7065449  21.8586161  73.7225217  48.4795636
  24.5796679  72.8309074  48.8373596  24.5790906  72.6757731  49.6957873
  24.3752859  73.6772061  48.7814982  24.5496457  72.9329695  48.9561536
  17.8737445  68.7471998  58.4646184  18.0065350  67.9502992  58.7927160
  18.2582597  69.2738401  59.0444460  17.9493773  68.7071915  58.5989687
  20.9469800  65.6702324  55.0627278  20.1415763  65.5600054  55.3795116
  20.8176535  65.7714780  54.2057143  20.8089933  65.6685994  54.9835318
  24.4035760  71.8347816  55.6566974  23.8198749  72.3357023  55.2444542
  24.7240054  71.3277372  55.0231298  24.3648936  71.8339651  55.5025482
  16.9430559  70.7488411  45.9325649  17.7646254  70.9186724  45.6907344
  16.4800210  70.9035672  45.2091947  16.9961722  70.7970144  45.7897294
  15.5325891  68.7431173  56.7124078  16.0770304  68.4022300  57.3028420
  15.5862827  69.6016635  56.8545363  15.6215011  68.8186433  56.8205951
   4.4066946  22.8100594  34.7008046   4.3760950  23.6645230  34.8726316
   5.0048295  22.5095886  35.2594190   4.4904104  22.8917090  34.8082849
   0.9160347  28.1662770  49.0621433   1.6227115  27.6714801  49.1908367
   1.1048283  28.6071852  48.3324091   1.0488253  28.1581121  48.9730479
   2.2283520  25.3852896  32.9726356   2.1123046  26.1360582  33.4018494
   3.0239407  25.1276849  33.2222443   2.3288110  25.4587743  33.0730448
   1.5418825  12.7340833  36.6700971   1.2272266  13.4244312  37.1021393
   1.0245767  12.6785615  35.9686471   1.4183296  12.8275722  36.6297920
   6.3379312  28.3091638  38.1571426   5.5077015  28.5202282  38.3204842
   6.2888564  27.4828693  37.8813709   6.2086047  28.2181245  38.1408791
   5.8333270  20.9562039  41.9521847   4.9961691  21.0264226  42.1869442
   5.8021501  20.9586534  41.0796149   5.7051553  20.9672266  41.8581395
   0.5563456  25.1517716  37.5433739   1.3120971  25.5849230  37.5822647
   0.6625781  24.5022485  38.1168375   0.6833627  25.1195200  37.6331764
   3.5943627  28.9790993  38.2936142   3.1578859  28.9827735  39.0495113
   3.2606543  29.6596492  37.8615719   3.4806247  29.0803449  38.3416974
   3.5141110  16.0204821  40.5365569   4.1567019  16.0902925  41.1227485
   3.7664131  15.3534044  40.0345111   3.6463242  15.9331169  40.5492849
   6.7287973  25.6971913  37.1855779   7.3904408  25.1362581  37.0851687
   6.0879385  25.2023944  37.5108470   6.7316841  25.5408322  37.2188119
   3.0152804  26.7137295  36.9267768   3.2508393  26.8582494  36.0994618
   3.1642368  27.4779703  37.3199281   3.0718607  26.8476350  36.8631371
   4.8443261  25.5538961  34.7637371   5.1751478  26.0866601  34.1577466
   5.4176349  25.6077849  35.4199322   4.9776940  25.6408530  34.7715153
   5.9522612  20.7949458  36.2677533   5.6959177  19.9829400  36.0775416
   6.7951926  20.8027025  36.0407720   6.0388638  20.6761455  36.2062350
   3.6347772  27.9499054  46.1036086   3.3986409  27.1187119  45.9848146
   4.2791001  27.8984661  46.6890930   3.6942442  27.8196742  46.1721979
   4.6584192  27.7343503  42.1664380   4.3530009  28.4671560  42.5277696
   3.9390408  27.3281432  41.8857166   4.5071535  27.7825236  42.1777517
  10.3585984  24.3736504  41.4932724  10.2910485  24.3932463  40.6235311
  10.3441647  25.2166831  41.7188395  10.3464741  24.5010238  41.3985201
   8.1444602  23.1480890  39.7679319   8.6952523  22.5148959  40.0076411
   8.1288717  23.6796283  40.4594823   8.2229798  23.1329838  39.9058177
   1.8473008  21.3877223  38.8783915   1.5037774  20.6667559  39.2291165
   1.9466051  21.1791075  38.0362273   1.8115051  21.2501427  38.8055595
   2.3086037  27.8502927  34.4207903   2.8744070  28.5096137  34.3366446
   1.6613941  28.1952626  34.8924305   2.2964794  27.9984869  34.4780660
   4.2421497  24.5136795  38.0404700   4.1555472  24.6692221  38.8939478
   3.7871977  25.1574870  37.6664105   4.1624754  24.6312550  38.1111806
   2.0095362  28.5430901  40.4517040   1.8709721  29.2411947  40.9565783
   1.2295360  28.3879558  40.0953222   1.8738589  28.6231068  40.4743315
   3.5048735  27.9009155  31.2133540   3.1255544  27.1146293  31.2062829
   2.8414980  28.4496012  31.0705184   3.3507210  27.8653979  31.1914336
   1.7508834  30.1454646  31.5485225   1.8328671  30.9521632  31.2246676
   2.2358576  30.1650605  32.2725999   1.8345992  30.2675309  31.6072124
   1.2584034  28.9052064  51.6303551   2.0718899  28.6337213  51.7908684
   1.0979000  28.6059604  50.8263747   1.3553983  28.8206990  51.5348957
   1.2705278  29.9658355  46.9026392   1.9084999  29.4718550  46.5688848
   0.6279370  29.8935755  46.3178619   1.2699505  29.8817363  46.7668747
   2.9962278  21.8147501  41.4692307   2.5689886  21.7273849  40.7140407
   2.3588331  21.9225276  42.0547152   2.8391885  21.8180161  41.4437749
   1.3259535  30.6578163  43.5431749   2.1151913  30.3067228  43.6633830
   1.5003133  31.4714551  43.2808382   1.4679816  30.7264020  43.5219617
   3.4327047  15.2219484  37.5850932   2.8201360  15.7089886  37.9704664
   3.5291221  14.5462975  38.1288584   3.3564944  15.1937793  37.7229791
   7.0752075  26.2936421  43.0128449   7.1335198  26.7423069  43.7588425
   6.4418542  26.7035234  42.5758529   6.9903370  26.4210155  43.0580997
   4.0273754  24.3152708  41.0994139   3.7871977  23.4759124  41.1036565
   4.5065761  24.3952875  41.8234912   4.0625938  24.2034108  41.2068941
   6.0278941  21.0954166  39.0523398   5.7888711  21.0550000  38.2144183
   6.1912842  21.9425318  39.1789119   6.0169244  21.2146251  38.9476880
   2.6324971  25.4804115  44.9828443   3.3559170  25.0276641  44.8039463
   2.3674933  25.7608781  44.2000771   2.7006244  25.4555083  44.8407159
   5.0660285  24.4430526  43.4858993   5.6578125  25.0827776  43.5177191
   5.5019280  23.7453562  43.7751060   5.2178716  24.4348876  43.5339826
   2.0909426  21.6575744  35.7862135   1.4200616  22.2005447  35.6575201
   2.7849177  22.1270600  35.5443830   2.0938294  21.8074016  35.7317663
   2.2537554  18.1131628  38.6952509   2.6065164  17.6861351  39.3698307
   1.3952355  18.0282472  38.8253585   2.1786999  18.0376369  38.8147519
   3.6861614  13.2350040  39.6236821   3.1792479  12.5279179  39.5557999
   4.4829048  12.9043229  39.7537898   3.7288853  13.0823191  39.6335816
   5.8881754  27.7514966  32.6077686   6.2715360  28.5006323  32.8375783
   5.0925867  27.9980786  32.3489675   5.8275536  27.8984660  32.6035259
   2.3282336  18.7316589  35.7713643   2.3276562  18.5765246  36.6297920
   2.1238516  19.5779576  35.7155029   2.2982114  18.8337210  35.8901583
   2.1175007  26.1617779  42.1126979   2.5430079  25.6392201  41.5597404
   1.7531927  26.7598616  41.5915602   2.1261610  26.1728006  41.9535989
   0.7930591  31.4853356  50.6220208   0.9027556  30.6961917  50.9776956
   1.1221488  31.3959293  49.8194546   0.8582997  31.3559209  50.5562599
   2.1521417  17.7355332  42.5907021   1.5684406  18.2364538  42.1784589
   2.4725711  17.2284888  41.9571345   2.1134592  17.7347167  42.4365528
  15.3799529  38.3285901  34.7008046  15.3493534  39.1830538  34.8726316
  15.9780878  38.0281194  35.2594190  15.4636687  38.4102398  34.8082849
   8.5799214  37.4161552  39.4560977   7.7237110  37.5770051  39.5070094
   8.6266868  36.5453616  39.4766038   8.4598326  37.3112354  39.4667043
   2.9640354  46.9524270  35.2198208   2.2123254  46.5739809  34.9914254
   3.4126366  46.9842704  34.4717019   2.9190021  46.9009878  35.0755711
  11.8892931  43.6848078  49.0621433  12.5959698  43.1900109  49.1908367
  12.0780866  44.1257160  48.3324091  12.0220836  43.6766428  48.9730479
   8.4165314  47.3749640  30.6483756   8.0816682  48.0526561  30.2127978
   8.9292184  46.9854951  30.0600627   8.4430895  47.4174218  30.4970547
   7.9569605  49.3263909  36.5894867   8.3408984  49.8950807  36.0499642
   7.8928746  48.6013419  36.1100683   8.0043032  49.3039372  36.4388730
  11.4251035  39.4753596  42.0992629  11.9706995  40.1538683  42.1586598
  11.3667912  39.3341057  41.2394210  11.4966950  39.5545598  41.9804689
   4.5425110  46.9642663  37.4860981   4.6435473  46.1543016  37.7958109
   3.9466855  46.8699609  36.8560659   4.4697649  46.8307691  37.4387219
  13.2016104  40.9038204  32.9726356  13.0855630  41.6545890  33.4018494
  13.9971991  40.6462157  33.2222443  13.3020693  40.9773050  33.0730448
   4.3825850  51.8820252  38.8875837   5.0263305  52.3233416  39.2771995
   4.7082105  51.0773678  38.8006096   4.5257678  51.8285446  38.9321314
   5.0846429  44.8932227  34.2595699   5.4062271  45.4337434  33.6557007
   5.7318526  44.3228998  34.3917989   5.2272485  44.8891402  34.1902734
   7.1348138  36.8948221  34.3430085   7.8328302  37.0736349  34.8351549
   7.4500470  36.3718561  33.7200475   7.2843475  36.8441994  34.3232096
   7.3236073  43.2818667  34.3309877   7.7629708  42.6735767  34.7764650
   7.1740736  42.9026040  33.5595342   7.3657539  43.1357138  34.2829044
   4.7907716  41.8762678  41.5328702   5.4356718  41.3835121  41.2139651
   5.0309493  42.0187465  42.3594781   4.9218301  41.8240121  41.6078236
   7.3293807  44.7217584  41.1835595   7.6117050  43.9268990  40.9622351
   8.0579968  45.1998172  41.2040656   7.4783371  44.6752181  41.1538610
   5.3075001  32.2640618  38.4251360   4.9778331  32.7151762  37.7555059
   4.6320003  32.1856781  38.9724367   5.1585437  32.3191753  38.4074583
  10.9245409  41.6345848  31.2840646  10.8396705  42.4906814  31.4290215
  11.4129793  41.3590172  31.9522805  10.9834307  41.7203169  31.4042728
  12.5151409  28.2526141  36.6700971  12.2004850  28.9429620  37.1021393
  11.9978351  28.1970923  35.9686471  12.3915879  28.3461030  36.6297920
  11.8563843  38.2530642  32.7838381  11.3275314  38.4690276  33.4435687
  12.3788863  38.9466780  32.7039351  11.8552296  38.3873779  32.8693980
  17.3111896  43.8276946  38.1571426  16.4809599  44.0387590  38.3204842
  17.2621148  43.0014001  37.8813709  17.1818631  43.7366553  38.1408791
   3.7463450  42.1493859  31.5845849   3.1620666  42.6543890  31.9911713
   3.3433546  41.9236246  30.8442441   3.6002754  42.1902107  31.5350874
   5.3721633  46.6580801  40.9919335   4.8548575  46.2988216  40.3880643
   6.0696024  46.1342975  41.0025401   5.3987214  46.5278489  40.9049594
   9.0285225  47.1075615  46.9535508   9.1168571  46.9201755  47.8013719
   9.4574938  46.4613044  46.5540355   9.1047328  46.9838622  47.0207260
   6.5955685  46.3906775  45.9353170   6.0326520  45.9779384  46.4592832
   7.3576708  46.3159680  46.3546314   6.6250134  46.3184175  46.0746171
   8.2040665  38.3959511  30.0614770   8.4436669  38.6037495  29.2490113
   8.5256506  37.5917020  30.1703714   8.2877823  38.3073612  29.9575323
   3.5130955  30.3252907  33.9074308   4.2676923  30.6931224  33.6691358
   3.3358490  30.6992461  34.6753487   3.5985434  30.4351094  33.9859196
   2.1551676  48.3804796  38.5389801   2.8572256  47.8656785  38.5962557
   2.0749159  48.7078947  39.3436676   2.2475437  48.3519022  38.6662593
  16.8065854  36.4747347  41.9521847  15.9694275  36.5449534  42.1869442
  16.7754085  36.4771842  41.0796149  16.6784136  36.4857574  41.8581395
   3.2030583  38.6180383  47.6670216   3.3751087  38.5086277  48.5155497
   3.7399940  39.2634788  47.4301408   3.3075587  38.6972384  47.7575312
   1.8688020  32.7323226  30.6052421   1.6863593  32.9495106  29.7793414
   2.7313633  32.8462238  30.6611035   1.9692609  32.7813123  30.4906908
   1.4802452  44.5711148  38.0475409   2.3191351  44.8034081  38.0949170
   1.5114221  43.7015459  37.9782444   1.6084169  44.4768094  38.0440053
   2.1055155  44.9912023  42.3488714   2.6453380  44.8483154  43.0192087
   1.4225101  45.3908774  42.7172740   2.0847309  45.0291694  42.5023136
   7.5487739  29.7349636  33.6401445   8.2773899  29.5565591  33.1939601
   7.6382632  30.5767716  33.8508623   7.6694401  29.8333515  33.6054962
  11.5296040  40.6703024  37.5433739  12.2853555  41.1034538  37.5822647
  11.6358364  40.0207793  38.1168375  11.6566210  40.6380507  37.6331764
  14.5676211  44.4976301  38.2936142  14.1311443  44.5013043  39.0495113
  14.2339126  45.1781800  37.8615719  14.4538831  44.5988757  38.3416974
   9.1405284  46.5384634  49.6179292   9.9245701  46.6515481  49.9835034
   8.9401879  45.7125771  49.8137978   9.2271310  46.4331353  49.7013678
  14.4873694  31.5390129  40.5365569  15.1299602  31.6088233  41.1227485
  14.7396714  30.8719352  40.0345111  14.6195826  31.4516477  40.5492849
   1.4150047  36.0097398  29.1174894   0.7008224  35.7235578  29.5297326
   1.8994016  36.3494024  29.7581281   1.3809410  36.0179048  29.2730529
   2.2590906  34.7490692  45.1490143   1.5662703  34.2787672  45.3950875
   2.8751234  34.5228997  45.7231851   2.2475436  34.6457824  45.2699296
   9.2975678  48.4494736  43.2645747   8.4990924  48.2094236  43.5219616
   9.7461689  48.5009129  44.0112795   9.2450289  48.4217127  43.4130672
   8.5897365  44.5127352  29.4936702   9.0048513  44.1812376  28.8021198
   7.7589294  44.2796254  29.3656839   8.5285374  44.4298608  29.3727549
  13.9885388  42.2322603  36.9267768  14.2240977  42.3767802  36.0994618
  14.1374951  42.9965011  37.3199281  14.0451191  42.3661658  36.8631371
   0.9831465  38.7156096  46.2916989   1.7071438  38.7009127  46.7781883
   1.0847602  39.4251451  45.7938957   1.1049674  38.8180799  46.2895775
  15.8175844  41.0724269  34.7637371  16.1484062  41.6051909  34.1577466
  16.3908933  41.1263157  35.4199322  15.9509524  41.1593838  34.7715153
   8.3576415  42.1955181  51.1565936   7.5649395  42.5098692  51.3418555
   8.4725342  42.4106649  50.3186720   8.2571825  42.2739017  51.0604270
  11.0307734  38.9189172  35.4460951  11.1254588  39.6578466  35.9000577
  10.4066577  38.4906647  35.8795516  10.9516764  38.9650492  35.5769099
   9.2860207  42.0975384  46.0951232   9.8599069  41.4602629  46.2499796
   9.2075011  42.0979467  45.2260890   9.3593442  42.0040496  45.9897643
  11.2830755  40.7637912  28.6797903  11.2010917  40.8340099  29.5452890
  11.9210475  41.3267656  28.4881644  11.3650592  40.8576883  28.7787853
   4.6423926  40.5298650  38.1472430   4.3843170  39.6970384  38.1203729
   4.6972409  40.7556263  37.3064930   4.6123704  40.4396421  38.0192567
   9.7224976  32.6327100  38.2476522   9.0181303  32.1436286  38.4060442
   9.7709951  32.6449575  37.3764967   9.6255028  32.5616748  38.1415862
   3.6158638  38.0836412  38.6337325   3.0408229  38.2428580  39.2701285
   3.2394315  37.4471821  38.1705775   3.4761451  38.0134225  38.6591883
   7.2831927  36.5559761  43.4929703   6.8946360  36.1313979  42.8381894
   6.6186625  36.8041911  44.0006730   7.1278855  36.5298482  43.4717571
  16.9255196  36.3134766  36.2677533  16.6691761  35.5014707  36.0775416
  17.7684510  36.3212333  36.0407720  17.0121221  36.1946763  36.2062350
  11.1058288  30.2534390  41.0053687  11.4868800  29.5712561  41.3921561
  10.3021573  29.9643992  40.8229352  11.0434750  30.1101439  41.0357743
   8.3870865  40.7858366  31.6906510   9.2011504  41.0773259  31.5789281
   8.3230006  40.1318228  31.1164803   8.4973604  40.7323561  31.5895347
  14.6080355  43.4684362  46.1036086  14.3718993  42.6372427  45.9848146
  15.2523584  43.4169969  46.6890930  14.6675026  43.3382050  46.1721979
   4.2578773  44.2579883  36.8178822   4.8952720  44.0191631  37.3630615
   4.6833845  44.4617042  36.0831983   4.4154940  44.2530894  36.7895979
   4.8981588  39.4782173  31.1553711   5.2826741  39.2589880  31.9070257
   4.6493209  40.3045118  31.2854788   4.9183661  39.5680319  31.2854788
   5.0650129  32.7588588  50.8716296   4.7503570  33.5288151  50.6085858
   4.7440061  32.1958844  50.2868523   4.9709048  32.7898857  50.7457646
  15.6316776  43.2528811  42.1664380  15.3262593  43.9856868  42.5277696
  14.9122992  42.8466740  41.8857166  15.4804118  43.3010544  42.1777517
   6.6400245  44.7352306  38.4972608   6.7139254  44.5727478  39.3514458
   7.4569752  44.9242496  38.2533090   6.7716604  44.7389048  38.5870634
   2.6182026  31.1479110  36.4862492   1.7504451  31.2201709  36.5520101
   2.9057230  31.9501189  36.6750467   2.5321774  31.2773257  36.5237259
  11.7414915  31.2956969  44.8173814  12.4868507  31.1066780  44.4037239
  11.3252219  31.8215207  44.2587670  11.7899889  31.3459115  44.6738387
   5.1804831  47.6987049  33.2286082   5.4703129  47.3076030  32.5045308
   5.9108312  47.8803754  33.6691357   5.3311715  47.6680863  33.1868889
   5.7699576  42.5004795  44.3139212   5.2711270  43.2120563  44.3924101
   6.5799801  42.8205462  44.2757375   5.8155683  42.6531644  44.3195781
   3.1210747  49.6754431  36.2946231   2.9011042  49.3851786  37.0872898
   2.9005269  49.0169386  35.7664144   3.0558341  49.5354140  36.3335140
   2.0327694  41.7627748  38.5601933   1.7440942  41.1365219  39.0947660
   2.9011042  41.7048035  38.6266614   2.1187946  41.6615292  38.6492888
  12.8205592  36.9062531  38.8783915  12.4770357  36.1852867  39.2291165
  12.9198634  36.6976382  38.0362273  12.7847634  36.7686735  38.8055595
   5.2878702  51.0483821  35.0776924   5.9402760  50.5160264  35.3067950
   4.5904311  50.6952474  35.4644798   5.2809420  50.9173344  35.1689092
   2.2359967  43.4022999  34.4844298   2.9905935  43.7836038  34.6979761
   1.6430580  43.8534143  34.9390995   2.2596681  43.5251826  34.5827177
  13.2818621  43.3688235  34.4207903  13.8476653  44.0281445  34.3366446
  12.6346524  43.7137933  34.8924305  13.2697377  43.5170177  34.4780660
   4.6966634  35.3585839  49.6101510   3.8866410  35.6643619  49.4991353
   5.1741321  36.0791422  49.7254095   4.6470113  35.5100440  49.6108582
   3.5558194  44.5731560  39.8584414   3.0338947  44.7131852  40.5436278
   3.9432214  43.8142225  40.0486531   3.5361895  44.4817084  39.9885490
   9.7525199  46.3127020  33.8444982   9.5111875  45.5794880  33.4372047
   9.9326532  46.8613877  33.1911316   9.7432823  46.2849411  33.6875205
   4.9824519  41.6035579  35.2565905   4.7867302  42.2110314  34.6626208
   5.2058865  40.9103523  34.7757579   4.9859160  41.5913105  35.0981985
   3.3803049  38.4890317  35.3746773   4.1025701  38.6531475  34.9150579
   2.9011042  39.2099982  35.2686113   3.4166780  38.6188547  35.2912387
  11.3396557  34.8254116  40.7543458  10.5007658  34.8515395  40.5181721
  11.4100924  35.4724852  41.3348804  11.2264950  34.9250242  40.8052575
   1.0310666  40.8948390  44.4800913   1.5431763  41.1732643  43.8309673
   0.7447009  41.6337684  44.8463726   1.0645529  41.0450743  44.4390791
   9.7865835  31.7239493  35.4871074  10.4892188  31.5247241  35.0091032
   9.5210024  30.9515435  35.7939917   9.8512468  31.5802459  35.4616515
  15.2154081  40.0322103  38.0404700  15.1288055  40.1877529  38.8939478
  14.7604561  40.6760178  37.6664105  15.1357337  40.1497858  38.1111806
   4.5494392  32.9874778  44.5401954   4.3577589  33.0029913  45.3901378
   5.3992987  33.1838453  44.5168609   4.6470113  33.0189129  44.6625249
   9.0879897  37.3532850  36.6630259   8.8414611  37.2728601  37.4967048
   9.4165020  36.5686318  36.4692787   9.1001140  37.2259115  36.7577782
  12.9827946  44.0616209  40.4517040  12.8442305  44.7597255  40.9565783
  12.2027944  43.9064866  40.0953222  12.8471173  44.1416376  40.4743315
  11.3206031  40.3612585  46.7039422  11.3154069  39.4892401  46.7081849
  12.0267025  40.5600754  46.2308878  11.4251035  40.2616459  46.6346457
   5.0476924  40.0889569  46.0753242   5.1920300  40.6690777  45.4396352
   5.3952573  40.4665865  46.7803097   5.1204386  40.2310273  46.0852237
   7.2196842  39.2879737  43.8578374   6.4720156  39.4810751  43.4526652
   7.3738367  38.4624956  43.6202495   7.1319269  39.1944848  43.7623780
   4.1204679  48.2792340  42.9414269   4.2694243  47.7195256  42.2887673
   4.9004681  48.3584342  43.3246788   4.2578773  48.2077906  42.9011218
  14.4781319  43.4194463  31.2133540  14.0988127  42.6331601  31.2062829
  13.8147564  43.9681320  31.0705184  14.3239793  43.3839287  31.1914336
   6.6457980  48.4506983  44.2198760   6.5701651  47.7815794  44.7749548
   6.5747839  49.1524771  44.7339426   6.6238587  48.4551891  44.3775608
   7.4598619  33.1830288  44.7473778   7.9171233  33.9154262  44.8746570
   7.5354947  32.7596753  45.5061033   7.5389588  33.2287526  44.8774854
  11.9325944  26.3620163  38.6167620  12.0509513  26.8196626  37.8834923
  11.7588120  25.5565424  38.3303838  11.9245115  26.3113935  38.4668554
   7.3028227  46.9707982  35.0522366   8.0678118  46.7017626  34.7305030
   7.2006317  46.4857992  35.7692429   7.4009722  46.8597547  35.1102193
   5.3380996  35.1732392  41.5915602   4.5477071  34.9923852  41.9132937
   5.7341619  34.3959344  41.5745896   5.2797873  35.0319852  41.6368150
   9.8246887  44.0020166  27.0322315  10.5919872  44.0620291  26.6228167
   9.3778196  43.4300607  26.5478634   9.8720315  43.9256742  26.9000025
  10.7224683  42.8074822  39.3175047  10.0469685  42.5760054  39.8188434
  10.7317059  42.1996005  38.6917152  10.6243187  42.6833747  39.2991200
   7.8518827  37.6492651  46.0739100   7.7877968  38.5102607  45.9459237
   7.9916014  37.3324644  45.2734652   7.8634297  37.7292817  45.9367313
   6.5337921  40.3424790  40.2155303   6.1100170  40.5429289  39.4794322
   6.3582776  39.4953638  40.3279603   6.4448801  40.2473571  40.1228993
   6.0349614  51.8575303  42.6776761   6.5245544  51.1586092  42.4952425
   5.4633846  51.5599173  43.2652818   6.0234144  51.7101527  42.7377801
   1.8220366  40.8376841  35.6483276   1.9784985  40.7723644  36.5039268
   2.1620959  41.6125394  35.4361956   1.8953600  40.9426040  35.7437870
   8.3599510  40.2134725  34.5176639   8.9015056  39.7105106  34.9815260
   8.6746069  40.1599920  33.7066124   8.4863907  40.1314146  34.4660451
  12.2316618  44.4237372  51.6303551  13.0451483  44.1522521  51.7908684
  12.0711584  44.1244912  50.8263747  12.3286566  44.3392298  51.5348957
   6.5285960  45.6052077  31.8016667   6.5978780  44.7466615  31.9409668
   7.3074415  45.8223957  31.4735692   6.6538810  45.5104941  31.7733824
   9.5088780  35.1071030  44.5698940   9.7230749  34.4681944  44.0162294
   8.8922679  35.5516853  44.1406801   9.4494109  35.0781173  44.4249371
  10.9193448  48.0289778  36.0153160  10.5273239  47.7256493  35.2976027
  11.0746520  48.8658868  35.8258114  10.8847037  48.1073615  35.8809658
  11.6727868  36.7160095  45.5082247  10.8604549  36.4085985  45.5895419
  12.1317802  36.2359095  46.0724959  11.6208252  36.5996587  45.6036841
  11.0833122  44.5939767  35.9559191  10.7247777  44.7654410  36.7323223
  10.5971833  45.0552972  35.3987189  10.9591819  44.6878738  35.9884460
   8.9003508  28.2170965  39.5586282   8.0297066  28.1909686  39.5119592
   9.1543850  28.0448157  38.7412128   8.8097068  28.1881109  39.4306419
   5.8721488  40.2738932  28.4959425   6.1614013  41.0503815  28.7703000
   5.9593287  39.7627664  29.1973925   5.9275744  40.3130850  28.6401923
   8.7681375  38.1220166  50.2910949   9.2381006  38.7462283  50.6778823
   8.8143255  37.4537142  50.8504164   8.8449251  38.1154846  50.4311020
   5.9252649  30.2277194  41.0159753   5.4091137  29.5357385  41.1411332
   5.3646578  30.8947971  40.9622351   5.7659162  30.2240451  41.0265819
   7.9944882  30.7670154  42.8452605   7.6076635  30.7919185  43.6266135
   7.5077820  30.2011832  42.3927122   7.8657391  30.6865905  42.8940509
  12.2437862  45.4843663  46.9026392  12.8817582  44.9903858  46.5688848
  11.6011953  45.4121063  46.3178619  12.2432088  45.4002671  46.7668747
  13.9694862  37.3332809  41.4692307  13.5422470  37.2459157  40.7140407
  13.3320915  37.4410584  42.0547152  13.8124469  37.3365468  41.4437749
   7.6602024  27.6537139  45.1362865   8.2895142  28.1897439  44.8583936
   7.8287887  27.5614498  45.9876431   7.7779819  27.7198501  45.2211393
   7.4615939  32.4408334  47.4089277   8.2889368  32.1693483  47.4647891
   7.4823785  33.2369176  47.7653095   7.5868789  32.5188088  47.4704460
  12.2992118  46.1763471  43.5431749  13.0884496  45.8252536  43.6633830
  12.4735716  46.9899859  43.2808382  12.4412400  46.2449328  43.5219617
   2.0385429  39.5872197  40.5959537   1.1973435  39.4876071  40.8038431
   2.2475437  40.3567677  40.9473858   1.9450121  39.6864240  40.6786852
  11.1525942  30.1873028  38.1048167  11.3575536  30.1195336  38.9505164
  10.8252366  30.9931849  38.0369344  11.1341190  30.2958968  38.2207822
   5.8502094  37.5153596  39.8457135   5.5465231  36.9609584  40.4467543
   5.1481514  37.6945806  39.3585169   5.7018303  37.4598378  39.8626841
   4.9068191  34.8254116  34.4101837   5.1827925  34.1073028  33.9979404
   5.5066860  35.4239036  34.2022943   5.0361455  34.8074486  34.3182598
   3.9120445  44.7303317  44.5529233   3.8040799  44.7405379  45.4191291
   4.1216226  45.5558097  44.3634187   3.9270556  44.8544391  44.6533324
  14.4059630  30.7404792  37.5850932  13.7933944  31.2275194  37.9704664
  14.5023805  30.0648283  38.1288584  14.3297528  30.7123101  37.7229791
   8.4078711  32.4967633  32.6848432   8.8622458  32.6678193  33.4096276
   8.8818757  31.8835744  32.2846208   8.5447031  32.4318518  32.7322193
   1.9294237  41.9815959  42.0151170   1.3382170  42.6225457  41.9854185
   2.6915260  42.4053576  41.9882470   1.9542497  42.1391797  42.0066318
   2.3254859  33.1417957  42.6819188   2.7856341  33.2156886  43.4194312
   2.3710966  33.9399211  42.3319009   2.4005415  33.2712104  42.7391944
   3.9738209  33.8084652  47.2491215   3.5823774  33.1617999  47.6846993
   4.1424072  34.3996087  47.8685470   3.9409119  33.7998919  47.4053921
  18.0484658  41.8121729  43.0128449  18.1067782  42.2608377  43.7588425
  17.4151126  42.2220541  42.5758529  17.9635953  41.9395463  43.0580997
  11.6883753  47.4325271  39.4483195  11.4903441  47.9216085  38.7539406
  11.0671464  47.6366512  40.0267328  11.5671317  47.5341809  39.4306418
   5.7491731  39.2010167  33.7893439   6.4933776  39.5884444  34.0276389
   5.8952427  38.3567593  33.9533927   5.8802316  39.1340640  33.8487409
   7.6671307  30.9960426  38.8225300   6.8207352  31.1683234  38.6966650
   7.6642439  30.1909770  39.1591129   7.5418457  30.9021455  38.8536427
   8.7369607  34.7735641  39.6887358   8.2629561  34.2477403  40.1992669
   9.1087743  34.2265114  39.1202220   8.7219496  34.6151637  39.6802506
  15.0006338  39.8338016  41.0994139  14.7604560  38.9944432  41.1036565
  15.4798345  39.9138183  41.8234912  15.0358521  39.7219416  41.2068941
  10.6653107  35.6672195  32.7513112  10.1376125  35.7500939  32.0618821
  11.1248815  36.4090067  32.7477757  10.6554957  35.7892858  32.6487807
  17.0011525  36.6139474  39.0523398  16.7621295  36.5735308  38.2144183
  17.1645426  37.4610626  39.1789119  16.9901828  36.7331559  38.9476880
  13.6057555  40.9989423  44.9828443  14.3291754  40.5461949  44.8039463
  13.3407517  41.2794089  44.2000771  13.6738828  40.9740391  44.8407159
   2.4744423  35.5949596  41.7181322   1.8497493  35.6067988  41.1107275
   2.1390018  36.0709772  42.3672563   2.3329915  35.6668113  41.7237891
   2.6586172  33.9374715  27.7754007   2.3098976  34.5894440  28.2385557
   2.1782618  33.9231828  27.0477879   2.5356416  34.0317768  27.7365099
  10.2190189  44.2375759  31.8822769  10.9424388  44.7033872  31.7387343
   9.7790780  44.3049368  31.1320366  10.2605881  44.3159596  31.7507551
   9.3876344  41.0973301  43.1323458   8.7733337  40.5531351  43.4272094
   9.9043629  40.5837538  42.6529274   9.3732007  40.9409710  43.1047687
   8.6272641  42.1677571  40.8667757   8.2000249  41.5427290  40.4333192
   8.6197586  41.8852493  41.6926764   8.5631783  42.0330352  40.9247584
   1.7435168  37.2042744  43.9356191   1.9028655  36.4486068  44.3407913
   1.5628062  37.7533684  44.5896929   1.7400527  37.1736558  44.0918897
   9.6855471  29.3703980  44.4906980   9.1896033  29.5667654  43.7998547
  10.4424534  29.7696648  44.3195782   9.7242296  29.4581714  44.3627117
   6.9558351  33.0446326  41.0810291   6.9800838  32.5106438  40.3923071
   7.2069825  32.5363634  41.7435881   6.9968270  32.8907230  41.0774936
   3.2359673  31.7717144  40.4616035   3.2758045  32.2726350  41.1750743
   2.4109338  31.8627538  40.1921958   3.1199199  31.8598960  40.5266573
   5.4189286  41.3377884  48.5636330   4.5684917  41.4749598  48.6993975
   5.5817414  40.6041662  49.0084031   5.3173150  41.2491985  48.6491929
   4.6574037  38.2877654  42.7589934   3.8265966  38.4551472  42.5525182
   4.6025554  37.9113605  43.5438820   4.5263452  38.2567385  42.8438462
   2.4657820  31.7786547  48.3946345   3.0910523  31.2348679  48.6675777
   2.0108300  31.2981464  47.8254135   2.4906081  31.6276028  48.3507939
   3.0310080  36.5633245  33.2880052   3.1713042  37.0605710  33.9908693
   3.5292613  35.8619540  33.4294266   3.1251161  36.5335224  33.4131631
   3.0610303  37.4300356  30.6172629   3.6955382  38.0260781  30.5522091
   3.1435914  37.1303814  31.4318499   3.1666854  37.4741264  30.7275715
  16.0392869  39.9615834  43.4858993  16.6310709  40.6013084  43.5177191
  16.4751863  39.2638870  43.7751060  16.1911300  39.9534184  43.5339826
   4.6389286  33.3614332  30.5918071   4.9605127  32.8817414  29.9377333
   4.9016229  34.1713978  30.4008882   4.7255311  33.4104230  30.4673563
   7.8686259  44.3833206  44.1116887   7.3611350  44.9369053  44.5557517
   7.5712905  44.4441496  43.2935661   7.7491143  44.4739517  44.0565344
  10.0348441  32.7486526  42.9541550  10.4603512  32.2959052  42.3425076
   9.4205434  32.1946596  43.2306337  10.0077086  32.6000502  42.9046575
  10.4794039  48.2996464  32.0420830   9.7623349  48.1257326  31.5768068
  11.1300776  48.0649036  31.5096316  10.4695889  48.2392256  31.8950048
   8.4742664  29.2201625  36.3632127   7.8310982  29.0699272  36.9317265
   8.1342071  28.9743971  35.5981231   8.3287741  29.1613748  36.3335142
  13.0642010  37.1761052  35.7862135  12.3933200  37.7190755  35.6575201
  13.7581760  37.6455908  35.5443830  13.0670878  37.3259324  35.7317663
   7.1128744  49.3157764  41.0173894   6.8894398  48.5576594  41.3857920
   6.6238587  49.3455786  40.2954333   7.0072193  49.2079989  40.9650635
  13.2270138  33.6316936  38.6952509  13.5797748  33.2046659  39.3698307
  12.3684939  33.5467779  38.8253585  13.1519582  33.5561677  38.8147519
   1.9253823  36.2624456  36.7535355   1.2065812  36.6788588  37.0208219
   2.2966185  36.8278694  36.2026993   1.8745754  36.4073737  36.7118162
  11.2253403  36.8952305  42.6437351  11.2051331  36.7135600  43.4972130
  11.2732604  37.7664323  42.6196935  11.2288044  36.9968843  42.7660646
   9.1699733  43.4839497  48.5685827   9.1295588  42.8389173  47.9830983
   9.9823051  43.4276114  48.8811240   9.2842887  43.3798463  48.5282777
   5.7607201  49.5358222  38.4710978   5.3467599  48.8732353  38.0814820
   6.4454575  49.6836081  37.9506673   5.8005572  49.4598881  38.3367475
   9.1272495  48.6948308  39.2234595   8.7288778  48.8050578  38.4555415
   8.5123714  48.9030374  39.8061155   8.9771384  48.7421876  39.1965894
   7.7000397  35.3022456  32.0908735   7.1065236  35.6239452  31.5393302
   7.7375675  34.4563551  31.8829841   7.6174786  35.2246784  31.9791506
  14.6594198  28.7535348  39.6236821  14.1525062  28.0464487  39.5557999
  15.4561631  28.4228537  39.7537898  14.7021437  28.6008499  39.6335816
  10.5758213  35.2601960  35.5210485  10.3471906  35.2834661  34.6788843
  10.8356290  34.4359427  35.6405495  10.5804401  35.1418040  35.4135683
   4.8577442  37.1136433  45.1235585   4.3456345  36.5057616  45.4820616
   4.6856938  37.8293026  45.5909561   4.7567079  37.1299732  45.2451809
   3.6302976  33.7978506  36.8164681   4.1060342  34.1595586  36.1814862
   3.1291576  34.4534974  37.0964823   3.6268335  33.9472695  36.7641422
  16.8614338  43.2700274  32.6077686  17.2447943  44.0191631  32.8375783
  16.0658451  43.5166094  32.3489675  16.8008120  43.4169968  32.6035259
   8.7346512  35.0360678  47.5637841   9.2917942  34.8074487  46.9316306
   8.4107577  35.7966343  47.2873053   8.7692922  35.1144514  47.4294338
   6.4529630  38.1228331  48.5289848   7.2040956  38.4380008  48.8429402
   6.6452206  37.9207502  47.7023770   6.5921044  38.1395713  48.4533244
   5.6729629  35.9419706  30.1838065   6.0528594  35.9599335  29.3989179
   4.9322225  36.3873695  30.0628912   5.6198467  36.0101481  30.0501633
  13.3014920  34.2501897  35.7713643  13.3009146  34.0950554  36.6297920
  13.0971100  35.0964884  35.7155029  13.2714697  34.3522518  35.8901583
  11.0255772  38.9299399  39.4249850  11.5209437  38.2122394  39.3853870
  10.2155547  38.6270197  39.3104337  10.9799665  38.7797045  39.4023576
   6.4714383  42.7797212  31.5746855   5.6625706  42.4563886  31.5280164
   6.9789292  42.0730434  31.5075103   6.4264050  42.6278529  31.5577149
  13.0907591  41.6803087  42.1126979  13.5162662  41.1577508  41.5597404
  12.7264510  42.2783924  41.5915602  13.0994193  41.6913314  41.9535989
   2.7261670  49.9767304  40.8724324   3.0408229  50.7903693  40.8802106
   3.1355084  49.5917523  41.5406483   2.8329768  50.0396006  40.9728416
   9.6786190  45.3937351  38.4428136  10.1497368  46.1077613  38.6118122
  10.0146369  44.7936101  38.9788006   9.7981305  45.4108815  38.5460512
  11.7663175  47.0038664  50.6220208  11.8760140  46.2147225  50.9776956
  12.0954071  46.9144600  49.8194546  11.8315580  46.8744517  50.5562599
   6.5955685  30.1664821  45.3986231   6.7283591  29.3695815  45.7267207
   6.9800838  30.6931224  45.9784507   6.6712014  30.1264738  45.5329734
  10.3160136  45.1855285  45.2055829   9.7681082  44.5613169  44.9375894
  10.7773165  45.3749557  44.4899908  10.3027346  45.1214335  45.0606260
   9.6688040  27.0895148  41.9967324   8.8634004  26.9792877  42.3135163
   9.5394776  27.1907603  41.1397190   9.5308173  27.0878818  41.9175365
  13.1254001  33.2540639  42.5907021  12.5416990  33.7549846  42.1784589
  13.4458295  32.7470196  41.9571345  13.0867176  33.2532475  42.4365528
   5.6648800  32.1681234  32.8665696   6.4864494  32.3379547  32.6247391
   5.2018451  32.3228495  32.1431994   5.7179962  32.2162967  32.7237340
   4.2544132  30.1623997  43.6464125   4.7988545  29.8215123  44.2368467
   4.3081067  31.0209458  43.7885409   4.3433251  30.2379256  43.7545998
   9.8818463  46.1906358  41.7365170  10.7016836  46.0469324  41.9981465
   9.6012540  46.8152557  42.2781608   9.9615206  46.2616710  41.8553110
  19.5531798  52.9346860  39.4560977  18.6969693  53.0955359  39.5070094
  19.5999452  52.0638924  39.4766038  19.4330909  52.8297662  39.4667043
  13.9372938  62.4709578  35.2198208  13.1855837  62.0925117  34.9914254
  14.3858949  62.5028012  34.4717019  13.8922604  62.4195185  35.0755711
  22.8625514  59.2033386  49.0621433  23.5692282  58.7085417  49.1908367
  23.0513450  59.6442468  48.3324091  22.9953420  59.1951736  48.9730479
  19.3897897  62.8934948  30.6483756  19.0549266  63.5711869  30.2127978
  19.9024768  62.5040259  30.0600627  19.4163479  62.9359526  30.4970547
  18.9302189  64.8449216  36.5894867  19.3141568  65.4136115  36.0499642
  18.8661330  64.1198727  36.1100683  18.9775616  64.8224680  36.4388730
  22.3983619  54.9938904  42.0992629  22.9439579  55.6723991  42.1586598
  22.3400495  54.8526365  41.2394210  22.4699533  55.0730906  41.9804689
  15.5157694  62.4827970  37.4860981  15.6168057  61.6728324  37.7958109
  14.9199439  62.3884917  36.8560659  15.4430232  62.3492999  37.4387219
  24.1748688  56.4223511  32.9726356  24.0588213  57.1731198  33.4018494
  24.9704574  56.1647465  33.2222443  24.2753277  56.4958358  33.0730448
  15.3558433  67.4005560  38.8875837  15.9995889  67.8418724  39.2771995
  15.6814689  66.5958986  38.8006096  15.4990262  67.3470754  38.9321314
   8.7122738  58.5048257  37.1113315   8.4772922  57.6715909  37.0045583
   8.8508379  58.7852923  36.2974516   8.6978400  58.4231760  36.9755670
  11.0112825  50.6733988  40.0097622  10.3917857  50.0826635  39.8407637
  10.9096689  51.2645423  39.3761946  10.9050501  50.6738070  39.8902612
  16.0579013  60.4117534  34.2595699  16.3794854  60.9522742  33.6557007
  16.7051110  59.8414306  34.3917989  16.2005068  60.4076710  34.1902734
  18.1080721  52.4133529  34.3430085  18.8060886  52.5921657  34.8351549
  18.4233054  51.8903869  33.7200475  18.2576058  52.3627302  34.3232096
  10.7381958  54.2186269  42.2541191  10.6140655  54.8048715  42.8891010
  11.3900243  53.7246465  42.5553466  10.8155608  54.2325074  42.3927121
  18.2968656  58.8003974  34.3309877  18.7362292  58.1921075  34.7764650
  18.1473319  58.4211348  33.5595342  18.3390122  58.6542446  34.2829044
  15.7640299  57.3947986  41.5328702  16.4089302  56.9020429  41.2139651
  16.0042077  57.5372773  42.3594781  15.8950885  57.3425428  41.6078236
  18.3026391  60.2402892  41.1835595  18.5849634  59.4454298  40.9622351
  19.0312551  60.7183480  41.2040656  18.4515955  60.1937489  41.1538610
  16.2807585  47.7825926  38.4251360  15.9510915  48.2337070  37.7555059
  15.6052587  47.7042089  38.9724367  16.1318021  47.8377061  38.4074583
  21.8977993  57.1531156  31.2840646  21.8129288  58.0092122  31.4290215
  22.3862376  56.8775480  31.9522805  21.9566890  57.2388477  31.4042728
  22.8296426  53.7715950  32.7838381  22.3007898  53.9875583  33.4435687
  23.3521446  54.4652088  32.7039351  22.8284879  53.9059087  32.8693980
  14.7196034  57.6679167  31.5845849  14.1353249  58.1729198  31.9911713
  14.3166129  57.4421554  30.8442441  14.5735338  57.7087415  31.5350874
  10.2740063  63.3833928  38.3869521   9.7907641  64.1084417  38.3629104
  11.0863381  63.6810058  38.4979679  10.3230810  63.5336282  38.3996800
  16.3454217  62.1766109  40.9919335  15.8281158  61.8173524  40.3880643
  17.0428608  61.6528283  41.0025401  16.3719798  62.0463796  40.9049594
  20.0017809  62.6260923  46.9535508  20.0901155  62.4387063  47.8013719
  20.4307521  61.9798352  46.5540355  20.0779911  62.5023930  47.0207260
  17.5688268  61.9092083  45.9353170  17.0059103  61.4964692  46.4592832
  18.3309292  61.8344988  46.3546314  17.5982717  61.8369483  46.0746171
  19.1773249  53.9144819  30.0614770  19.4169252  54.1222803  29.2490113
  19.4989089  53.1102327  30.1703714  19.2610406  53.8258920  29.9575323
  14.4863539  45.8438214  33.9074308  15.2409507  46.2116532  33.6691358
  14.3091073  46.2177769  34.6753487  14.5718017  45.9536402  33.9859196
  13.1284260  63.8990104  38.5389801  13.8304839  63.3842093  38.5962557
  13.0481743  64.2264255  39.3436676  13.2208020  63.8704330  38.6662593
  27.7798437  51.9932655  41.9521847  26.9426859  52.0634842  42.1869442
  27.7486668  51.9957150  41.0796149  27.6516720  52.0042882  41.8581395
  14.1763167  54.1365691  47.6670216  14.3483670  54.0271585  48.5155497
  14.7132524  54.7820096  47.4301408  14.2808170  54.2157692  47.7575312
  12.8420603  48.2508533  30.6052421  12.6596177  48.4680414  29.7793414
  13.7046216  48.3647546  30.6611035  12.9425193  48.2998431  30.4906908
  12.4535035  60.0896456  38.0475409  13.2923935  60.3219388  38.0949170
  12.4846805  59.2200767  37.9782444  12.5816753  59.9953402  38.0440053
  13.0787738  60.5097331  42.3488714  13.6185963  60.3668462  43.0192087
  12.3957685  60.9094082  42.7172740  13.0579892  60.5477002  42.5023136
  18.5220323  45.2534944  33.6401445  19.2506483  45.0750899  33.1939601
  18.6115216  46.0953024  33.8508623  18.6426985  45.3518823  33.6054962
  22.5028623  56.1888332  37.5433739  23.2586138  56.6219846  37.5822647
  22.6090948  55.5393101  38.1168375  22.6298794  56.1565815  37.6331764
  25.5408794  60.0161609  38.2936142  25.1044026  60.0198351  39.0495113
  25.2071710  60.6967108  37.8615719  25.4271414  60.1174065  38.3416974
  20.1137868  62.0569942  49.6179292  20.8978285  62.1700789  49.9835034
  19.9134463  61.2311079  49.8137978  20.2003893  61.9516661  49.7013678
   8.4824883  56.7297622  42.5023136   8.2163299  55.9136738  42.6614126
   8.4963448  56.7750777  41.6318651   8.4449606  56.6154526  42.3976618
  12.3882630  51.5282706  29.1174894  11.6740808  51.2420886  29.5297326
  12.8726599  51.8679332  29.7581281  12.3541994  51.5364356  29.2730529
  13.2323490  50.2676000  45.1490143  12.5395287  49.7972980  45.3950875
  13.8483817  50.0414304  45.7231851  13.2208020  50.1643132  45.2699296
  20.2708261  63.9680044  43.2645747  19.4723507  63.7279544  43.5219616
  20.7194273  64.0194437  44.0112795  20.2182873  63.9402435  43.4130672
  19.5629948  60.0312660  29.4936702  19.9781097  59.6997684  28.8021198
  18.7321878  59.7981562  29.3656839  19.5017957  59.9483916  29.3727549
   8.8918297  57.5156401  39.7834880   8.7093870  57.4903287  38.9307172
   9.6267966  57.9855339  39.8223789   8.9732361  57.5817763  39.6632798
  11.9564049  54.2341404  46.2916989  12.6804021  54.2194435  46.7781883
  12.0580185  54.9436759  45.7938957  12.0782258  54.3366107  46.2895775
  19.3308998  57.7140489  51.1565936  18.5381979  58.0284000  51.3418555
  19.4457925  57.9291957  50.3186720  19.2304409  57.7924325  51.0604270
  22.0040317  54.4374480  35.4460951  22.0987172  55.1763774  35.9000577
  21.3799161  54.0091955  35.8795516  21.9249347  54.4835800  35.5769099
  20.2592791  57.6160692  46.0951232  20.8331653  56.9787937  46.2499796
  20.1807595  57.6164775  45.2260890  20.3326026  57.5225804  45.9897643
   8.8589207  54.3949902  39.9333947   9.4362710  54.2586353  40.5726192
   8.1603269  53.9385686  40.1879531   8.8410229  54.3072168  40.0656236
  22.2563338  56.2823220  28.6797903  22.1743501  56.3525407  29.5452890
  22.8943059  56.8452963  28.4881644  22.3383176  56.3762191  28.7787853
  15.6156510  56.0483957  38.1472430  15.3575754  55.2155692  38.1203729
  15.6704992  56.2741570  37.3064930  15.5856288  55.9581729  38.0192567
  20.6957560  48.1512408  38.2476522  19.9913887  47.6621594  38.4060442
  20.7442534  48.1634883  37.3764967  20.5987611  48.0802056  38.1415862
  14.5891222  53.6021720  38.6337325  14.0140813  53.7613888  39.2701285
  14.2126898  52.9657129  38.1705775  14.4494034  53.5319533  38.6591883
  18.2564510  52.0745069  43.4929703  17.8678943  51.6499287  42.8381894
  17.5919209  52.3227219  44.0006730  18.1011438  52.0483790  43.4717571
   4.3348041  53.2461795  36.6481765   4.4208293  52.8693663  37.4295295
   4.9623838  52.8722240  36.1701723   4.4404592  53.1347277  36.6927242
  22.0790872  45.7719698  41.0053687  22.4601384  45.0897869  41.3921561
  21.2754156  45.4829300  40.8229352  22.0167334  45.6286746  41.0357743
  19.3603449  56.3043674  31.6906510  20.1744088  56.5958567  31.5789281
  19.2962590  55.6503536  31.1164803  19.4706188  56.2508869  31.5895347
  25.5812939  58.9869670  46.1036086  25.3451576  58.1557735  45.9848146
  26.2256168  58.9355277  46.6890930  25.6407610  58.8567358  46.1721979
  15.2311357  59.7765191  36.8178822  15.8685304  59.5376939  37.3630615
  15.6566429  59.9802350  36.0831983  15.3887523  59.7716201  36.7895979
   9.9223999  62.0153528  40.7013126   9.9628145  62.2868379  39.8732905
  10.4818523  62.5395436  41.1170914  10.0107345  62.1329283  40.6405014
  15.8714172  54.9967481  31.1553711  16.2559325  54.7775188  31.9070257
  15.6225792  55.8230426  31.2854788  15.8916245  55.0865627  31.2854788
  16.0382712  48.2773896  50.8716296  15.7236153  49.0473459  50.6085858
  15.7172645  47.7144152  50.2868523  15.9441631  48.3084165  50.7457646
  26.6049359  58.7714119  42.1664380  26.2995177  59.5042176  42.5277696
  25.8855575  58.3652048  41.8857166  26.4536702  58.8195852  42.1777517
  17.6132829  60.2537614  38.4972608  17.6871837  60.0912786  39.3514458
  18.4302335  60.4427803  38.2533090  17.7449188  60.2574356  38.5870634
  32.3051152  55.4107119  41.4932724  32.2375652  55.4303078  40.6235311
  32.2906814  56.2537447  41.7188395  32.2929908  55.5380854  41.3985201
  11.3738586  60.5995477  35.5267052  10.5476703  60.8457214  35.4001331
  11.4350577  60.5207558  36.3929110  11.2612753  60.6240426  35.6355996
  13.5914609  46.6664418  36.4862492  12.7237035  46.7387017  36.5520101
  13.8789814  47.4686497  36.6750467  13.5054357  46.7958565  36.5237259
  22.7147498  46.8142277  44.8173814  23.4601090  46.6252087  44.4037239
  22.2984803  47.3400515  44.2587670  22.7632472  46.8644422  44.6738387
  16.1537415  63.2172357  33.2286082  16.4435713  62.8261338  32.5045308
  16.8840895  63.3989062  33.6691357  16.3044299  63.1866171  33.1868889
  16.7432160  58.0190103  44.3139212  16.2443853  58.7305871  44.3924101
  17.5532384  58.3390769  44.2757375  16.7888267  58.1716951  44.3195781
  14.0943330  65.1939739  36.2946231  13.8743626  64.9037094  37.0872898
  13.8737852  64.5354694  35.7664144  14.0290924  65.0539448  36.3335140
  13.0060277  57.2813056  38.5601933  12.7173526  56.6550527  39.0947660
  13.8743625  57.2233343  38.6266614  13.0920529  57.1800600  38.6492888
  23.7938175  52.4247839  38.8783915  23.4502941  51.7038174  39.2291165
  23.8931218  52.2161690  38.0362273  23.7580218  52.2872042  38.8055595
  16.2611286  66.5669129  35.0776924  16.9135344  66.0345572  35.3067950
  15.5636895  66.2137782  35.4644798  16.2542004  66.4358652  35.1689092
  13.2092551  58.9208307  34.4844298  13.9638519  59.3021346  34.6979761
  12.6163163  59.3719451  34.9390995  13.2329264  59.0437134  34.5827177
  24.2551204  58.8873543  34.4207903  24.8209237  59.5466753  34.3366446
  23.6079108  59.2323241  34.8924305  24.2429961  59.0355485  34.4780660
  15.6699218  50.8771147  49.6101510  14.8598994  51.1828927  49.4991353
  16.1473905  51.5976730  49.7254095  15.6202697  51.0285748  49.6108582
  14.5290777  60.0916868  39.8584414  14.0071531  60.2317160  40.5436278
  14.9164798  59.3327533  40.0486531  14.5094478  60.0002392  39.9885490
  11.5181961  50.1422677  33.9279368  11.2306757  49.7723947  33.1911316
  12.2052430  50.6117532  33.6663073  11.5770859  50.1569646  33.7794444
  20.7257782  61.8312328  33.8444982  20.4844458  61.0980188  33.4372047
  20.9059115  62.3799184  33.1911316  20.7165406  61.8034719  33.6875205
  15.9557103  57.1220887  35.2565905  15.7599886  57.7295622  34.6626208
  16.1791449  56.4288831  34.7757579  15.9591744  57.1098413  35.0981985
  14.3535633  54.0075625  35.3746773  15.0758285  54.1716783  34.9150579
  13.8743626  54.7285290  35.2686113  14.3899364  54.1373855  35.2912387
  22.3129141  50.3439424  40.7543458  21.4740241  50.3700703  40.5181721
  22.3833508  50.9910159  41.3348804  22.1997534  50.4435550  40.8052575
  12.0043250  56.4133698  44.4800913  12.5164347  56.6917951  43.8309673
  11.7179592  57.1522992  44.8463726  12.0378113  56.5636051  44.4390791
  20.7598419  47.2424801  35.4871074  21.4624772  47.0432549  35.0091032
  20.4942608  46.4700743  35.7939917  20.8245051  47.0987767  35.4616515
   9.0910156  50.9203889  34.7764649   9.1926292  51.7230051  35.1045625
   9.8866043  50.7191225  34.4787730   9.2238062  51.0089788  34.7800005
  15.5226975  48.5060086  44.5401954  15.3310172  48.5215221  45.3901378
  16.3725571  48.7023760  44.5168609  15.6202697  48.5374437  44.6625249
   9.9073888  51.0351068  42.5185771   9.7659380  50.1835008  42.6430279
  10.1914452  51.0779728  41.6947977   9.9281734  50.9150818  42.4153395
  20.0612480  52.8718158  36.6630259  19.8147195  52.7913909  37.4967048
  20.3897604  52.0871626  36.4692787  20.0733724  52.7444423  36.7577782
  23.9560529  59.5801517  40.4517040  23.8174889  60.2782563  40.9565783
  23.1760527  59.4250174  40.0953222  23.8203756  59.6601684  40.4743315
  22.2938614  55.8797893  46.7039422  22.2886653  55.0077709  46.7081849
  22.9999608  56.0786062  46.2308878  22.3983618  55.7801767  46.6346457
  16.0209508  55.6074876  46.0753242  16.1652883  56.1876085  45.4396352
  16.3685156  55.9851173  46.7803097  16.0936969  55.7495580  46.0852237
  18.1929425  54.8065045  43.8578374  17.4452739  54.9996059  43.4526652
  18.3470950  53.9810264  43.6202495  18.1051853  54.7130156  43.7623780
  15.0937263  63.7977648  42.9414269  15.2426826  63.2380564  42.2887673
  15.8737265  63.8769650  43.3246788  15.2311356  63.7263214  42.9011218
  25.4513902  58.9379771  31.2133540  25.0720711  58.1516909  31.2062829
  24.7880148  59.4866628  31.0705184  25.2972377  58.9024595  31.1914336
  17.6190563  63.9692291  44.2198760  17.5434234  63.3001102  44.7749548
  17.5480423  64.6710079  44.7339426  17.5971170  63.9737198  44.3775608
  18.4331202  48.7015596  44.7473778  18.8903816  49.4339570  44.8746570
  18.5087531  48.2782061  45.5061033  18.5122172  48.7472834  44.8774854
  10.6764193  48.9481415  45.8363221  10.1406383  48.3361773  46.1523989
  10.7381958  49.5229551  46.4896888  10.6059826  48.9428343  45.9798648
  18.2760810  62.4893290  35.0522366  19.0410701  62.2202934  34.7305030
  18.1738900  62.0043300  35.7692429  18.3742306  62.3782855  35.1102193
  16.3113580  50.6917699  41.5915602  15.5209655  50.5109160  41.9132937
  16.7074203  49.9144652  41.5745896  16.2530456  50.5505160  41.6368150
  20.7979471  59.5205474  27.0322315  21.5652456  59.5805599  26.6228167
  20.3510780  58.9485915  26.5478634  20.8452898  59.4442049  26.9000025
  21.6957266  58.3260130  39.3175047  21.0202268  58.0945362  39.8188434
  21.7049642  57.7181313  38.6917152  21.5975771  58.2019055  39.2991200
  18.8251410  53.1677959  46.0739100  18.7610552  54.0287915  45.9459237
  18.9648598  52.8509952  45.2734652  18.8366880  53.2478125  45.9367313
  23.6974001  61.1825262  31.5485225  23.7793838  61.9892248  31.2246676
  24.1823743  61.2021221  32.2725999  23.7811159  61.3045924  31.6072124
  17.5070504  55.8610098  40.2155303  17.0832753  56.0614597  39.4794322
  17.3315359  55.0138946  40.3279603  17.4181385  55.7658879  40.1228993
  17.0082198  67.3760611  42.6776761  17.4978128  66.6771400  42.4952425
  16.4366430  67.0784481  43.2652818  16.9966728  67.2286835  42.7377801
  12.7952949  56.3562149  35.6483276  12.9517568  56.2908952  36.5039268
  13.1353542  57.1310702  35.4361956  12.8686184  56.4611348  35.7437870
  19.3332094  55.7320033  34.5176639  19.8747639  55.2290414  34.9815260
  19.6478653  55.6785228  33.7066124  19.4596491  55.6499454  34.4660451
  23.2049201  59.9422680  51.6303551  24.0184067  59.6707829  51.7908684
  23.0444168  59.6430220  50.8263747  23.3019150  59.8577606  51.5348957
  17.5018544  61.1237384  31.8016667  17.5711364  60.2651923  31.9409668
  18.2806999  61.3409265  31.4735692  17.6271394  61.0290248  31.7733824
  20.4821363  50.6256337  44.5698940  20.6963333  49.9867252  44.0162294
  19.8655262  51.0702161  44.1406801  20.4226692  50.5966481  44.4249371
  21.8926031  63.5475086  36.0153160  21.5005823  63.2441801  35.2976027
  22.0479103  64.3844176  35.8258114  21.8579621  63.6258922  35.8809658
   9.3687211  53.5397100  35.9644043   9.7486176  53.9581645  35.3004310
   8.7942576  54.1210556  36.2712886   9.3398536  53.6874959  35.9120784
  22.6460451  52.2345403  45.5082247  21.8337133  51.9271293  45.5895419
  23.1050386  51.7544403  46.0724959  22.5940836  52.1181895  45.6036841
  22.0565706  60.1125075  35.9559191  21.6980361  60.2839717  36.7323223
  21.5704417  60.5738280  35.3987189  21.9324403  60.2064046  35.9884460
  19.8736092  43.7356273  39.5586282  19.0029650  43.7094994  39.5119592
  20.1276433  43.5633465  38.7412128  19.7829652  43.7066417  39.4306419
  16.8454071  55.7924240  28.4959425  17.1346596  56.5689123  28.7703000
  16.9325870  55.2812971  29.1973925  16.9008328  55.8316158  28.6401923
  19.7413959  53.6405474  50.2910949  20.2113590  54.2647590  50.6778823
  19.7875839  52.9722450  50.8504164  19.8181835  53.6340154  50.4311020
  16.8985232  45.7462502  41.0159753  16.3823721  45.0542693  41.1411332
  16.3379161  46.4133279  40.9622351  16.7391746  45.7425759  41.0265819
  18.9677466  46.2855462  42.8452605  18.5809219  46.3104493  43.6266135
  18.4810403  45.7197140  42.3927122  18.8389975  46.2051212  42.8940509
  23.2170445  61.0028971  46.9026392  23.8550166  60.5089166  46.5688848
  22.5744537  60.9306371  46.3178619  23.2164672  60.9187979  46.7668747
  24.9427445  52.8518117  41.4692307  24.5155053  52.7644465  40.7140407
  24.3053498  52.9595892  42.0547152  24.7857053  52.8550776  41.4437749
  18.6334608  43.1722447  45.1362865  19.2627725  43.7082747  44.8583936
  18.8020470  43.0799806  45.9876431  18.7512402  43.2383809  45.2211393
  18.4348522  47.9593642  47.4089277  19.2621952  47.6878791  47.4647891
  18.4556368  48.7554483  47.7653095  18.5601372  48.0373396  47.4704460
  23.2724702  61.6948779  43.5431749  24.0617080  61.3437844  43.6633830
  23.4468300  62.5085167  43.2808382  23.4144983  61.7634636  43.5219617
  13.0118012  55.1057505  40.5959537  12.1706019  55.0061379  40.8038431
  13.2208020  55.8752985  40.9473858  12.9182705  55.2049548  40.6786852
  10.4893579  52.7277042  38.4244288  10.0950277  52.8020053  37.6494398
   9.9333696  53.1134988  38.9752650  10.3496392  52.7958816  38.3911948
  16.8234677  53.0338904  39.8457135  16.5197815  52.4794892  40.4467543
  16.1214098  53.2131114  39.3585169  16.6750887  52.9783686  39.8626841
  15.8800774  50.3439424  34.4101837  16.1560509  49.6258336  33.9979404
  16.4799444  50.9424343  34.2022943  16.0094039  50.3259794  34.3182598
  14.8853028  60.2488624  44.5529233  14.7773383  60.2590687  45.4191291
  15.0948810  61.0743405  44.3634187  14.9003139  60.3729699  44.6533324
  19.3811295  48.0152941  32.6848432  19.8355041  48.1863501  33.4096276
  19.8551340  47.4021052  32.2846208  19.5179615  47.9503826  32.7322193
  12.9026820  57.5001267  42.0151170  12.3114753  58.1410765  41.9854185
  13.6647844  57.9238884  41.9882470  12.9275081  57.6577105  42.0066318
  13.2987443  48.6603265  42.6819188  13.7588924  48.7342194  43.4194312
  13.3443550  49.4584519  42.3319009  13.3737998  48.7897412  42.7391944
  14.9470793  49.3269960  47.2491215  14.5556358  48.6803307  47.6846993
  15.1156655  49.9181395  47.8685470  14.9141703  49.3184227  47.4053921
  29.0217242  57.3307037  43.0128449  29.0800365  57.7793685  43.7588425
  28.3883709  57.7405849  42.5758529  28.9368537  57.4580771  43.0580997
  22.6616336  62.9510578  39.4483195  22.4636025  63.4401393  38.7539406
  22.0404047  63.1551820  40.0267328  22.5403901  63.0527117  39.4306418
  16.7224315  54.7195475  33.7893439  17.4666360  55.1069752  34.0276389
  16.8685011  53.8752901  33.9533927  16.8534900  54.6525948  33.8487409
  18.6403890  46.5145734  38.8225300  17.7939935  46.6868542  38.6966650
  18.6375023  45.7095078  39.1591129  18.5151040  46.4206763  38.8536427
  19.7102191  50.2920949  39.6887358  19.2362145  49.7662711  40.1992669
  20.0820326  49.7450421  39.1202220  19.6952080  50.1336945  39.6802506
  10.0875221  52.2892455  45.0570904  10.9500834  52.1888165  44.9708234
   9.7567004  51.7087165  44.4956476  10.1660417  52.1884082  44.9616310
  25.9738921  55.3523324  41.0994139  25.7337144  54.5129739  41.1036565
  26.4530928  55.4323491  41.8234912  26.0091105  55.2404724  41.2068941
  21.6385690  51.1857503  32.7513112  21.1108709  51.2686247  32.0618821
  22.0981398  51.9275375  32.7477757  21.6287541  51.3078166  32.6487807
  27.9744108  52.1324781  39.0523398  27.7353878  52.0920616  38.2144183
  28.1378009  52.9795934  39.1789119  27.9634412  52.2516866  38.9476880
  24.5790138  56.5174731  44.9828443  25.3024337  56.0647257  44.8039463
  24.3140101  56.7979396  44.2000771  24.6471412  56.4925699  44.8407159
  13.4477007  51.1134904  41.7181322  12.8230077  51.1253296  41.1107275
  13.1122602  51.5895079  42.3672563  13.3062499  51.1853421  41.7237891
  13.6318755  49.4560023  27.7754007  13.2831560  50.1079748  28.2385557
  13.1515201  49.4417136  27.0477879  13.5088999  49.5503076  27.7365099
  10.1602682  59.1735364  43.1585087   9.6302607  58.4827803  43.2080061
  10.4327776  59.1645550  42.3297795  10.1227405  59.0702496  43.0432503
  21.1922773  59.7561067  31.8822769  21.9156972  60.2219180  31.7387343
  20.7523364  59.8234676  31.1320366  21.2338465  59.8344903  31.7507551
  20.3608928  56.6158609  43.1323458  19.7465921  56.0716659  43.4272094
  20.8776213  56.1022845  42.6529274  20.3464590  56.4595018  43.1047687
  19.6005225  57.6862879  40.8667757  19.1732833  57.0612598  40.4333192
  19.5930169  57.4037801  41.6926764  19.5364366  57.5515660  40.9247584
  12.7167752  52.7228052  43.9356191  12.8761239  51.9671376  44.3407913
  12.5360646  53.2718992  44.5896929  12.7133111  52.6921866  44.0918897
  20.6588055  44.8889288  44.4906980  20.1628616  45.0852962  43.7998547
  21.4157117  45.2881956  44.3195782  20.6974880  44.9767021  44.3627117
  17.9290935  48.5631634  41.0810291  17.9533422  48.0291746  40.3923071
  18.1802408  48.0548942  41.7435881  17.9700853  48.4092538  41.0774936
   5.4398524  55.8463129  40.5153435   5.3341974  55.8009973  39.6505519
   4.6898744  56.1916909  40.7967720   5.3134127  55.8904037  40.4290765
  14.2092257  47.2902452  40.4616035  14.2490628  47.7911658  41.1750743
  13.3841922  47.3812846  40.1921958  14.0931783  47.3784268  40.5266573
  16.3921870  56.8563192  48.5636330  15.5417500  56.9934906  48.6993975
  16.5549997  56.1226970  49.0084031  16.2905733  56.7677293  48.6491929
  15.6306620  53.8062962  42.7589934  14.7998550  53.9736780  42.5525182
  15.5758137  53.4298912  43.5438820  15.4996035  53.7752693  42.8438462
  13.4390404  47.2971855  48.3946345  14.0643107  46.7533987  48.6675777
  12.9840883  46.8166772  47.8254135  13.4638664  47.1461336  48.3507939
  14.0042664  52.0818553  33.2880052  14.1445625  52.5791017  33.9908693
  14.5025197  51.3804848  33.4294266  14.0983745  52.0520532  33.4131631
  14.0342886  52.9485664  30.6172629  14.6687966  53.5446089  30.5522091
  14.1168497  52.6489122  31.4318499  14.1399437  52.9926572  30.7275715
  27.0125452  55.4801142  43.4858993  27.6043293  56.1198392  43.5177191
  27.4484447  54.7824178  43.7751060  27.1643883  55.4719492  43.5339826
  15.6121869  48.8799640  30.5918071  15.9337710  48.4002722  29.9377333
  15.8748813  49.6899286  30.4008882  15.6987895  48.9289538  30.4673563
  18.8418842  59.9018514  44.1116887  18.3343933  60.4554361  44.5557517
  18.5445488  59.9626804  43.2935661  18.7223727  59.9924825  44.0565344
  21.0081024  48.2671834  42.9541550  21.4336096  47.8144360  42.3425076
  20.3938017  47.7131904  43.2306337  20.9809670  48.1185810  42.9046575
  10.5395874  55.1453505  33.8862175  11.0488104  55.7418013  34.2673480
  11.0130147  54.8779479  33.2038594  10.6839250  55.1939320  33.8416697
  21.4526622  63.8181772  32.0420830  20.7355932  63.6442634  31.5768068
  22.1033360  63.5834344  31.5096316  21.4428473  63.7577564  31.8950048
  19.4475247  44.7386933  36.3632127  18.8043565  44.5884580  36.9317265
  19.1074654  44.4929279  35.5981231  19.3020324  44.6799056  36.3335142
  24.0374594  52.6946360  35.7862135  23.3665784  53.2376062  35.6575201
  24.7314344  53.1641216  35.5443830  24.0403461  52.8444631  35.7317663
  18.0861327  64.8343072  41.0173894  17.8626982  64.0761902  41.3857920
  17.5971171  64.8641093  40.2954333  17.9804776  64.7265297  40.9650635
  24.2002721  49.1502244  38.6952509  24.5530331  48.7231967  39.3698307
  23.3417523  49.0653087  38.8253585  24.1252166  49.0746985  38.8147519
  12.8986406  51.7809764  36.7535355  12.1798395  52.1973896  37.0208219
  13.2698768  52.3464002  36.2026993  12.8478338  51.9259045  36.7118162
  22.1985987  52.4137612  42.6437351  22.1783914  52.2320908  43.4972130
  22.2465188  53.2849631  42.6196935  22.2020628  52.5154151  42.7660646
  20.1432317  59.0024804  48.5685827  20.1028172  58.3574481  47.9830983
  20.9555635  58.9461422  48.8811240  20.2575470  58.8983771  48.5282777
  16.7339784  65.0543530  38.4710978  16.3200183  64.3917661  38.0814820
  17.4187159  65.2021389  37.9506673  16.7738156  64.9784189  38.3367475
  20.1005078  64.2133616  39.2234595  19.7021362  64.3235886  38.4555415
  19.4856298  64.4215682  39.8061155  19.9503968  64.2607184  39.1965894
  18.6732980  50.8207763  32.0908735  18.0797820  51.1424760  31.5393302
  18.7108258  49.9748859  31.8829841  18.5907370  50.7432092  31.9791506
  21.5490797  50.7787268  35.5210485  21.3204490  50.8019969  34.6788843
  21.8088873  49.9544735  35.6405495  21.5536985  50.6603348  35.4135683
  15.8310025  52.6321741  45.1235585  15.3188929  52.0242924  45.4820616
  15.6589522  53.3478334  45.5909561  15.7299662  52.6485040  45.2451809
  10.6775740  51.0759316  47.7737947  10.5078330  51.7360691  47.2286154
  10.2341690  51.2865878  48.4950436  10.5875074  51.2045298  47.7999576
  14.6035560  49.3163814  36.8164681  15.0792926  49.6780894  36.1814862
  14.1024159  49.9720282  37.0964823  14.6000919  49.4658003  36.7641422
  19.7079096  50.5545986  47.5637841  20.2650526  50.3259795  46.9316306
  19.3840161  51.3151651  47.2873053  19.7425506  50.6329822  47.4294338
   7.5777805  53.9806182  43.0326437   7.0304524  53.3106827  43.1507305
   8.3670183  53.6136030  43.0969904   7.6129988  53.8271168  43.0595137
  17.4262213  53.6413639  48.5289848  18.1773540  53.9565316  48.8429402
  17.6184790  53.4392810  47.7023770  17.5653627  53.6581021  48.4533244
  16.6462213  51.4605014  30.1838065  17.0261178  51.4784643  29.3989179
  15.9054809  51.9059003  30.0628912  16.5931050  51.5286789  30.0501633
   6.3364774  53.1926990  40.1872460   6.1586535  52.7403599  40.9127375
   6.0483796  53.9953151  40.3710937   6.2677727  53.2449547  40.3215963
  21.9988355  54.4484707  39.4249850  22.4942021  53.7307702  39.3853870
  21.1888131  54.1455505  39.3104337  21.9532249  54.2982353  39.4023576
  17.4446967  58.2982520  31.5746855  16.6358290  57.9749194  31.5280164
  17.9521876  57.5915742  31.5075103  17.3996634  58.1463837  31.5577149
   8.0737244  55.7254713  37.2994219   7.2082764  55.7140404  37.1876990
   8.1736060  55.5384936  38.1465358   7.9611411  55.6960775  37.4083163
  24.0640174  57.1988395  42.1126979  24.4895246  56.6762816  41.5597404
  23.6997094  57.7969232  41.5915602  24.0726777  57.2098622  41.9535989
  13.6994254  65.4952612  40.8724324  14.0140813  66.3089000  40.8802106
  14.1087667  65.1102831  41.5406483  13.8062352  65.5581314  40.9728416
  20.6518774  60.9122659  38.4428136  21.1229952  61.6262921  38.6118122
  20.9878952  60.3121409  38.9788006  20.7713889  60.9294123  38.5460512
  22.7395758  62.5223972  50.6220208  22.8492724  61.7332533  50.9776956
  23.0686655  62.4329908  49.8194546  22.8048164  62.3929825  50.5562599
  17.5688269  45.6850129  45.3986231  17.7016174  44.8881123  45.7267207
  17.9533421  46.2116532  45.9784507  17.6444597  45.6450046  45.5329734
  21.2892720  60.7040593  45.2055829  20.7413666  60.0798477  44.9375894
  21.7505749  60.8934865  44.4899908  21.2759929  60.6399643  45.0606260
  20.6420624  42.6080456  41.9967324  19.8366587  42.4978185  42.3135163
  20.5127359  42.7092911  41.1397190  20.5040757  42.6064126  41.9175365
  24.0986584  48.7725947  42.5907021  23.5149573  49.2735154  42.1784589
  24.4190878  48.2655504  41.9571345  24.0599760  48.7717782  42.4365528
  16.6381383  47.6866542  32.8665696  17.4597078  47.8564855  32.6247391
  16.1751034  47.8413803  32.1431994  16.6912546  47.7348275  32.7237340
  15.2276715  45.6809304  43.6464125  15.7721128  45.3400431  44.2368467
  15.2813651  46.5394766  43.7885409  15.3165835  45.7564564  43.7545998
  11.0407274  59.4425720  40.5202933  11.6452131  59.4021555  39.8916754
  10.8334587  60.2896873  40.5506989  11.0996171  59.5613723  40.4319049
  20.8551046  61.7091666  41.7365170  21.6749420  61.5654632  41.9981465
  20.5745124  62.3337865  42.2781608  20.9347790  61.7802018  41.8553110
   6.2758556  58.4260338  40.3901856   6.1782834  57.6156609  40.6991913
   7.0587426  58.4052131  40.0048124   6.3774693  58.3027428  40.3788719
  37.3264697  69.3656517  34.7008046  37.2958701  70.2201154  34.8726316
  37.9246045  69.0651810  35.2594190  37.4101854  69.4473014  34.8082849
  30.5264381  68.4532168  39.4560977  29.6702277  68.6140667  39.5070094
  30.5732035  67.5824232  39.4766038  30.4063493  68.3482970  39.4667043
  33.8358098  74.7218694  49.0621433  34.5424865  74.2270725  49.1908367
  34.0246033  75.1627775  48.3324091  33.9686004  74.7137044  48.9730479
  33.3716202  70.5124212  42.0992629  33.9172162  71.1909299  42.1586598
  33.3133079  70.3711673  41.2394210  33.4432117  70.5916214  41.9804689
  35.1481271  71.9408819  32.9726356  35.0320797  72.6916505  33.4018494
  35.9437158  71.6832773  33.2222443  35.2485861  72.0143666  33.0730448
  21.9845409  66.1919296  40.0097622  21.3650441  65.6011943  39.8407637
  21.8829273  66.7830731  39.3761946  21.8783085  66.1923378  39.8902612
  27.0311597  75.9302842  34.2595699  27.3527438  76.4708050  33.6557007
  27.6783693  75.3599614  34.3917989  27.1737652  75.9262018  34.1902734
  29.0813305  67.9318837  34.3430085  29.7793469  68.1106965  34.8351549
  29.3965637  67.4089177  33.7200475  29.2308642  67.8812609  34.3232096
  21.7114542  69.7371577  42.2541191  21.5873239  70.3234023  42.8891010
  22.3632827  69.2431773  42.5553466  21.7888191  69.7510382  42.3927121
  29.2701240  74.3189282  34.3309877  29.7094876  73.7106383  34.7764650
  29.1205903  73.9396656  33.5595342  29.3122706  74.1727753  34.2829044
  26.7372883  72.9133294  41.5328702  27.3821886  72.4205737  41.2139651
  26.9774660  73.0558081  42.3594781  26.8683468  72.8610736  41.6078236
  29.2758974  75.7588200  41.1835595  29.5582217  74.9639606  40.9622351
  30.0045135  76.2368788  41.2040656  29.4248538  75.7122797  41.1538610
  27.2540168  63.3011234  38.4251360  26.9243498  63.7522378  37.7555059
  26.5785170  63.2227397  38.9724367  27.1050605  63.3562369  38.4074583
  32.8710577  72.6716464  31.2840646  32.7861872  73.5277430  31.4290215
  33.3594960  72.3960788  31.9522805  32.9299474  72.7573785  31.4042728
  33.8029010  69.2901258  32.7838381  33.2740481  69.5060891  33.4435687
  34.3254030  69.9837396  32.7039351  33.8017463  69.4244395  32.8693980
  39.2577063  74.8647562  38.1571426  38.4274766  75.0758206  38.3204842
  39.2086315  74.0384617  37.8813709  39.1283798  74.7737169  38.1408791
  25.6928618  73.1864475  31.5845849  25.1085833  73.6914506  31.9911713
  25.2898713  72.9606862  30.8442441  25.5467921  73.2272723  31.5350874
  30.9750392  78.1446231  46.9535508  31.0633738  77.9572371  47.8013719
  31.4040105  77.4983660  46.5540355  31.0512495  78.0209238  47.0207260
  30.1505832  69.4330127  30.0614770  30.3901836  69.6408110  29.2490113
  30.4721673  68.6287635  30.1703714  30.2342990  69.3444228  29.9575323
  25.4596122  61.3623522  33.9074308  26.2142090  61.7301839  33.6691358
  25.2823657  61.7363077  34.6753487  25.5450601  61.4721710  33.9859196
  38.7531021  67.5117963  41.9521847  37.9159442  67.5820150  42.1869442
  38.7219252  67.5142458  41.0796149  38.6249303  67.5228190  41.8581395
  25.1495750  69.6550999  47.6670216  25.3216254  69.5456893  48.5155497
  25.6865108  70.3005404  47.4301408  25.2540754  69.7343000  47.7575312
  23.8153187  63.7693841  30.6052421  23.6328760  63.9865722  29.7793414
  24.6778800  63.8832854  30.6611035  23.9157776  63.8183739  30.4906908
  33.4761207  71.7073639  37.5433739  34.2318722  72.1405154  37.5822647
  33.5823531  71.0578409  38.1168375  33.6031377  71.6751123  37.6331764
  36.5141378  75.5346917  38.2936142  36.0776610  75.5383659  39.0495113
  36.1804293  76.2152416  37.8615719  36.4003998  75.6359372  38.3416974
  31.0870452  77.5755250  49.6179292  31.8710868  77.6886097  49.9835034
  30.8867046  76.7496387  49.8137978  31.1736477  77.4701969  49.7013678
  19.4557467  72.2482930  42.5023136  19.1895882  71.4322046  42.6614126
  19.4696031  72.2936085  41.6318651  19.4182189  72.1339834  42.3976618
  36.4338861  62.5760745  40.5365569  37.0764769  62.6458849  41.1227485
  36.6861882  61.9089967  40.0345111  36.5660993  62.4887093  40.5492849
  23.3615214  67.0468014  29.1174894  22.6473391  66.7606194  29.5297326
  23.8459183  67.3864640  29.7581281  23.3274577  67.0549664  29.2730529
  24.2056073  65.7861308  45.1490143  23.5127870  65.3158288  45.3950875
  24.8216401  65.5599612  45.7231851  24.1940603  65.6828440  45.2699296
  39.6485724  72.2527837  37.1855779  40.3102158  71.6918505  37.0851687
  39.0077136  71.7579867  37.5108470  39.6514592  72.0964246  37.2188119
  30.5362532  75.5497968  29.4936702  30.9513680  75.2182992  28.8021198
  29.7054462  75.3166870  29.3656839  30.4750541  75.4669224  29.3727549
  19.8650881  73.0341709  39.7834880  19.6826454  73.0088595  38.9307172
  20.6000550  73.5040647  39.8223789  19.9464945  73.1003071  39.6632798
  35.9350555  73.2693219  36.9267768  36.1706144  73.4138418  36.0994618
  36.0840119  74.0335627  37.3199281  35.9916358  73.4032273  36.8631371
  22.9296632  69.7526712  46.2916989  23.6536605  69.7379743  46.7781883
  23.0312769  70.4622067  45.7938957  23.0514841  69.8551415  46.2895775
  37.7641012  72.1094885  34.7637371  38.0949229  72.6422525  34.1577466
  38.3374100  72.1633773  35.4199322  37.8974691  72.1964454  34.7715153
  30.3041582  73.2325796  51.1565936  29.5114563  73.5469308  51.3418555
  30.4190509  73.4477265  50.3186720  30.2036992  73.3109633  51.0604270
  32.9772901  69.9559788  35.4460951  33.0719755  70.6949082  35.9000577
  32.3531744  69.5277263  35.8795516  32.8981931  70.0021108  35.5769099
  31.2325375  73.1346000  46.0951232  31.8064236  72.4973244  46.2499796
  31.1540178  73.1350083  45.2260890  31.3058609  73.0411112  45.9897643
  19.8321791  69.9135210  39.9333947  20.4095294  69.7771660  40.5726192
  19.1335853  69.4570994  40.1879531  19.8142812  69.8257476  40.0656236
  33.2295922  71.8008527  28.6797903  33.1476085  71.8710715  29.5452890
  33.8675643  72.3638271  28.4881644  33.3115759  71.8947499  28.7787853
  26.5889093  71.5669265  38.1472430  26.3308338  70.7341000  38.1203729
  26.6437576  71.7926878  37.3064930  26.5588871  71.4767037  38.0192567
  31.6690143  63.6697716  38.2476522  30.9646470  63.1806902  38.4060442
  31.7175118  63.6820191  37.3764967  31.5720195  63.5987364  38.1415862
  25.5623805  69.1207028  38.6337325  24.9873397  69.2799196  39.2701285
  25.1859482  68.4842437  38.1705775  25.4226618  69.0504841  38.6591883
  29.2297094  67.5930377  43.4929703  28.8411527  67.1684595  42.8381894
  28.5651792  67.8412527  44.0006730  29.0744022  67.5669098  43.4717571
  38.8720363  67.3505382  36.2677533  38.6156928  66.5385323  36.0775416
  39.7149677  67.3582949  36.0407720  38.9586389  67.2317379  36.2062350
  15.3080624  68.7647103  36.6481765  15.3940876  68.3878971  37.4295295
  15.9356422  68.3907548  36.1701723  15.4137175  68.6532585  36.6927242
  33.0523456  61.2905006  41.0053687  33.4333967  60.6083177  41.3921561
  32.2486740  61.0014608  40.8229352  32.9899917  61.1472054  41.0357743
  30.3336032  71.8228982  31.6906510  31.1476671  72.1143875  31.5789281
  30.2695174  71.1688844  31.1164803  30.4438771  71.7694176  31.5895347
  36.5545522  74.5054978  46.1036086  36.3184160  73.6743043  45.9848146
  37.1988751  74.4540585  46.6890930  36.6140193  74.3752666  46.1721979
  26.2043941  75.2950499  36.8178822  26.8417887  75.0562247  37.3630615
  26.6299012  75.4987658  36.0831983  26.3620107  75.2901509  36.7895979
  26.8446756  70.5152789  31.1553711  27.2291908  70.2960496  31.9070257
  26.5958376  71.3415734  31.2854788  26.8648828  70.6050935  31.2854788
  27.0115296  63.7959204  50.8716296  26.6968737  64.5658767  50.6085858
  26.6905229  63.2329460  50.2868523  26.9174215  63.8269473  50.7457646
  37.5781943  74.2899427  42.1664380  37.2727760  75.0227483  42.5277696
  36.8588159  73.8837356  41.8857166  37.4269285  74.3381160  42.1777517
  28.5865412  75.7722922  38.4972608  28.6604421  75.6098094  39.3514458
  29.4034919  75.9613111  38.2533090  28.7181771  75.7759664  38.5870634
  43.2783735  70.9292427  41.4932724  43.2108235  70.9488386  40.6235311
  43.2639398  71.7722755  41.7188395  43.2662492  71.0566162  41.3985201
  24.5647193  62.1849726  36.4862492  23.6969618  62.2572325  36.5520101
  24.8522397  62.9871805  36.6750467  24.4786941  62.3143873  36.5237259
  33.6880082  62.3327585  44.8173814  34.4333674  62.1437395  44.4037239
  33.2717386  62.8585823  44.2587670  33.7365056  62.3829730  44.6738387
  41.0642353  69.7036814  39.7679319  41.6150274  69.0704883  40.0076411
  41.0486468  70.2352206  40.4594823  41.1427549  69.6885762  39.9058177
  27.7164743  73.5375411  44.3139212  27.2176437  74.2491178  44.3924101
  28.5264968  73.8576077  44.2757375  27.7620850  73.6902259  44.3195781
  23.9792861  72.7998364  38.5601933  23.6906110  72.1735835  39.0947660
  24.8476209  72.7418651  38.6266614  24.0653113  72.6985908  38.6492888
  34.7670759  67.9433147  38.8783915  34.4235525  67.2223482  39.2291165
  34.8663801  67.7346998  38.0362273  34.7312802  67.8057350  38.8055595
  24.1825134  74.4393615  34.4844298  24.9371102  74.8206654  34.6979761
  23.5895747  74.8904758  34.9390995  24.2061848  74.5622442  34.5827177
  35.2283788  74.4058851  34.4207903  35.7941820  75.0652061  34.3366446
  34.5811691  74.7508549  34.8924305  35.2162544  74.5540793  34.4780660
  26.6431801  66.3956455  49.6101510  25.8331577  66.7014235  49.4991353
  27.1206488  67.1162038  49.7254095  26.5935280  66.5471056  49.6108582
  25.5023361  75.6102176  39.8584414  24.9804114  75.7502468  40.5436278
  25.8897381  74.8512840  40.0486531  25.4827062  75.5187700  39.9885490
  22.4914545  65.6607985  33.9279368  22.2039341  65.2909255  33.1911316
  23.1785013  66.1302840  33.6663073  22.5503442  65.6754954  33.7794444
  31.6990366  77.3497635  33.8444982  31.4577042  76.6165496  33.4372047
  31.8791699  77.8984492  33.1911316  31.6897990  77.3220027  33.6875205
  26.9289687  72.6406195  35.2565905  26.7332469  73.2480930  34.6626208
  27.1524032  71.9474139  34.7757579  26.9324328  72.6283721  35.0981985
  25.3268217  69.5260933  35.3746773  26.0490868  69.6902091  34.9150579
  24.8476209  70.2470598  35.2686113  25.3631947  69.6559163  35.2912387
  33.2861724  65.8624732  40.7543458  32.4472825  65.8886011  40.5181721
  33.3566091  66.5095467  41.3348804  33.1730118  65.9620858  40.8052575
  22.9775833  71.9319006  44.4800913  23.4896930  72.2103259  43.8309673
  22.6912176  72.6708300  44.8463726  23.0110696  72.0821359  44.4390791
  37.1619248  71.0692719  38.0404700  37.0753223  71.2248145  38.8939478
  36.7069728  71.7130794  37.6664105  37.0822505  71.1868474  38.1111806
  20.0642740  66.4389197  34.7764649  20.1658876  67.2415359  35.1045625
  20.8598626  66.2376533  34.4787730  20.1970645  66.5275096  34.7800005
  26.4959559  64.0245394  44.5401954  26.3042756  64.0400529  45.3901378
  27.3458155  64.2209068  44.5168609  26.5935281  64.0559745  44.6625249
  20.8806472  66.5536376  42.5185771  20.7391964  65.7020316  42.6430279
  21.1647035  66.5965036  41.6947977  20.9014318  66.4336126  42.4153395
  31.0345064  68.3903466  36.6630259  30.7879778  68.3099217  37.4967048
  31.3630187  67.6056934  36.4692787  31.0466308  68.2629731  36.7577782
  34.9293113  75.0986825  40.4517040  34.7907472  75.7967871  40.9565783
  34.1493111  74.9435482  40.0953222  34.7936340  75.1786992  40.4743315
  33.2671198  71.3983201  46.7039422  33.2619237  70.5263017  46.7081849
  33.9732192  71.5971370  46.2308878  33.3716202  71.2987075  46.6346457
  26.9942091  71.1260184  46.0753242  27.1385467  71.7061393  45.4396352
  27.3417740  71.5036481  46.7803097  27.0669553  71.2680888  46.0852237
  29.1662009  70.3250353  43.8578374  28.4185323  70.5181367  43.4526652
  29.3203534  69.4995572  43.6202495  29.0784436  70.2315464  43.7623780
  36.4246486  74.4565079  31.2133540  36.0453294  73.6702217  31.2062829
  35.7612731  75.0051936  31.0705184  36.2704961  74.4209903  31.1914336
  29.4063786  64.2200903  44.7473778  29.8636400  64.9524878  44.8746570
  29.4820114  63.7967369  45.5061033  29.4854756  64.2658142  44.8774854
  21.6496777  64.4666723  45.8363221  21.1138966  63.8547081  46.1523989
  21.7114542  65.0414859  46.4896888  21.5792410  64.4613651  45.9798648
  33.8791112  57.3990779  38.6167620  33.9974680  57.8567242  37.8834923
  33.7053287  56.5936040  38.3303838  33.8710283  57.3484551  38.4668554
  27.2846164  66.2103007  41.5915602  26.4942238  66.0294468  41.9132937
  27.6806786  65.4329960  41.5745896  27.2263040  66.0690468  41.6368150
  31.7712054  75.0390782  27.0322315  32.5385040  75.0990907  26.6228167
  31.3243363  74.4671223  26.5478634  31.8185482  74.9627357  26.9000025
  32.6689850  73.8445438  39.3175047  31.9934852  73.6130670  39.8188434
  32.6782226  73.2366620  38.6917152  32.5708354  73.7204363  39.2991200
  29.7983994  68.6863267  46.0739100  29.7343135  69.5473223  45.9459237
  29.9381182  68.3695260  45.2734652  29.8099464  68.7663433  45.9367313
  34.6706585  76.7010570  31.5485225  34.7526422  77.5077556  31.2246676
  35.1556327  76.7206529  32.2725999  34.7543742  76.8231232  31.6072124
  28.4803088  71.3795406  40.2155303  28.0565337  71.5799905  39.4794322
  28.3047943  70.5324254  40.3279603  28.3913968  71.2844187  40.1228993
  23.7685533  71.8747457  35.6483276  23.9250152  71.8094260  36.5039268
  24.1086126  72.6496010  35.4361956  23.8418768  71.9796655  35.7437870
  30.3064677  71.2505341  34.5176639  30.8480223  70.7475722  34.9815260
  30.6211236  71.1970536  33.7066124  30.4329074  71.1684762  34.4660451
  34.1781785  75.4607988  51.6303551  34.9916650  75.1893137  51.7908684
  34.0176751  75.1615528  50.8263747  34.2751733  75.3762914  51.5348957
  28.4751127  76.6422692  31.8016667  28.5443947  75.7837231  31.9409668
  29.2539582  76.8594573  31.4735692  28.6003977  76.5475556  31.7733824
  31.4553947  66.1441645  44.5698940  31.6695916  65.5052560  44.0162294
  30.8387846  66.5887469  44.1406801  31.3959276  66.1151789  44.4249371
  20.3419794  69.0582408  35.9644043  20.7218759  69.4766953  35.3004310
  19.7675159  69.6395863  36.2712886  20.3131119  69.2060267  35.9120784
  33.6193035  67.7530711  45.5082247  32.8069716  67.4456601  45.5895419
  34.0782969  67.2729711  46.0724959  33.5673420  67.6367203  45.6036841
  33.0298289  75.6310383  35.9559191  32.6712944  75.8025025  36.7323223
  32.5437000  76.0923588  35.3987189  32.9056986  75.7249354  35.9884460
  27.8186655  71.3109548  28.4959425  28.1079180  72.0874430  28.7703000
  27.9058454  70.7998279  29.1973925  27.8740911  71.3501466  28.6401923
  30.7146542  69.1590782  50.2910949  31.1846173  69.7832898  50.6778823
  30.7608422  68.4907758  50.8504164  30.7914418  69.1525462  50.4311020
  27.8717816  61.2647809  41.0159753  27.3556304  60.5728001  41.1411332
  27.3111745  61.9318587  40.9622351  27.7124329  61.2611067  41.0265819
  29.9410049  61.8040770  42.8452605  29.5541803  61.8289801  43.6266135
  29.4542987  61.2382448  42.3927122  29.8122558  61.7236520  42.8940509
  34.1903029  76.5214278  46.9026392  34.8282749  76.0274474  46.5688848
  33.5477120  76.4491679  46.3178619  34.1897255  76.4373287  46.7668747
  35.9160029  68.3703424  41.4692307  35.4887637  68.2829773  40.7140407
  35.2786082  68.4781200  42.0547152  35.7589636  68.3736084  41.4437749
  29.6067191  58.6907755  45.1362865  30.2360309  59.2268055  44.8583936
  29.7753054  58.5985114  45.9876431  29.7244986  58.7569117  45.2211393
  29.4081106  63.4778950  47.4089277  30.2354535  63.2064099  47.4647891
  29.4288952  64.2739791  47.7653095  29.5333956  63.5558704  47.4704460
  34.2457285  77.2134087  43.5431749  35.0349664  76.8623151  43.6633830
  34.4200883  78.0270475  43.2808382  34.3877567  77.2819944  43.5219617
  23.9850596  70.6242813  40.5959537  23.1438602  70.5246687  40.8038431
  24.1940604  71.3938293  40.9473858  23.8915288  70.7234856  40.6786852
  21.4626163  68.2462349  38.4244288  21.0682861  68.3205361  37.6494398
  20.9066280  68.6320296  38.9752650  21.3228975  68.3144124  38.3911948
  27.7967261  68.5524212  39.8457135  27.4930398  67.9980200  40.4467543
  27.0946681  68.7316422  39.3585169  27.6483470  68.4968994  39.8626841
  26.8533358  65.8624731  34.4101837  27.1293092  65.1443644  33.9979404
  27.4532027  66.4609651  34.2022943  26.9826622  65.8445102  34.3182598
  23.8759404  73.0186575  42.0151170  23.2847337  73.6596073  41.9854185
  24.6380427  73.4424192  41.9882470  23.9007664  73.1762413  42.0066318
  24.2720026  64.1788573  42.6819188  24.7321508  64.2527502  43.4194312
  24.3176133  64.9769827  42.3319009  24.3470582  64.3082720  42.7391944
  25.9203376  64.8455267  47.2491215  25.5288941  64.1988615  47.6846993
  26.0889239  65.4366703  47.8685470  25.8874287  64.8369535  47.4053921
  39.9949825  72.8492345  43.0128449  40.0532949  73.2978993  43.7588425
  39.3616293  73.2591157  42.5758529  39.9101120  72.9766079  43.0580997
  33.6348920  78.4695886  39.4483195  33.4368609  78.9586701  38.7539406
  33.0136631  78.6737128  40.0267328  33.5136484  78.5712425  39.4306418
  27.6956898  70.2380783  33.7893439  28.4398943  70.6255060  34.0276389
  27.8417594  69.3938209  33.9533927  27.8267483  70.1711256  33.8487409
  29.6136474  62.0331042  38.8225300  28.7672519  62.2053850  38.6966650
  29.6107606  61.2280386  39.1591129  29.4883624  61.9392071  38.8536427
  30.6834774  65.8106257  39.6887358  30.2094728  65.2848019  40.1992669
  31.0552910  65.2635729  39.1202220  30.6684663  65.6522253  39.6802506
  21.0607804  67.8077763  45.0570904  21.9233417  67.7073472  44.9708234
  20.7299587  67.2272473  44.4956476  21.1393001  67.7069390  44.9616310
  36.9471505  70.8708632  41.0994139  36.7069728  70.0315047  41.1036565
  37.4263512  70.9508799  41.8234912  36.9823688  70.7590032  41.2068941
  32.6118274  66.7042811  32.7513112  32.0841292  66.7871555  32.0618821
  33.0713982  67.4460683  32.7477757  32.6020124  66.8263474  32.6487807
  38.9476692  67.6510089  39.0523398  38.7086462  67.6105924  38.2144183
  39.1110593  68.4981241  39.1789119  38.9366995  67.7702174  38.9476880
  35.5522722  72.0360039  44.9828443  36.2756921  71.5832565  44.8039463
  35.2872684  72.3164704  44.2000771  35.6203995  72.0111007  44.8407159
  24.4209590  66.6320212  41.7181322  23.7962660  66.6438604  41.1107275
  24.0855185  67.1080387  42.3672563  24.2795082  66.7038729  41.7237891
  24.6051339  64.9745331  27.7754007  24.2564143  65.6265056  28.2385557
  24.1247785  64.9602444  27.0477879  24.4821583  65.0688384  27.7365099
  21.1335266  74.6920672  43.1585087  20.6035190  74.0013111  43.2080061
  21.4060359  74.6830858  42.3297795  21.0959988  74.5887804  43.0432503
  32.1655356  75.2746375  31.8822769  32.8889555  75.7404488  31.7387343
  31.7255947  75.3419984  31.1320366  32.2071049  75.3530211  31.7507551
  31.3341511  72.1343917  43.1323458  30.7198504  71.5901967  43.4272094
  31.8508796  71.6208153  42.6529274  31.3197174  71.9780326  43.1047687
  30.5737809  73.2048187  40.8667757  30.1465417  72.5797906  40.4333192
  30.5662753  72.9223109  41.6926764  30.5096950  73.0700968  40.9247584
  23.6900336  68.2413360  43.9356191  23.8493822  67.4856684  44.3407913
  23.5093229  68.7904300  44.5896929  23.6865695  68.2107174  44.0918897
  31.6320639  60.4074596  44.4906980  31.1361200  60.6038270  43.7998547
  32.3889701  60.8067264  44.3195782  31.6707463  60.4952329  44.3627117
  28.9023518  64.0816942  41.0810291  28.9266005  63.5477054  40.3923071
  29.1534992  63.5734250  41.7435881  28.9433437  63.9277845  41.0774936
  16.4131108  71.3648436  40.5153435  16.3074557  71.3195281  39.6505519
  15.6631328  71.7102217  40.7967720  16.2866711  71.4089345  40.4290765
  25.1824840  62.8087760  40.4616035  25.2223212  63.3096966  41.1750743
  24.3574505  62.8998153  40.1921958  25.0664366  62.8969576  40.5266573
  27.3654453  72.3748500  48.5636330  26.5150084  72.5120214  48.6993975
  27.5282581  71.6412278  49.0084031  27.2638317  72.2862601  48.6491929
  26.6039204  69.3248270  42.7589934  25.7731133  69.4922088  42.5525182
  26.5490721  68.9484220  43.5438820  26.4728619  69.2938001  42.8438462
  24.4122987  62.8157163  48.3946345  25.0375690  62.2719295  48.6675777
  23.9573467  62.3352080  47.8254135  24.4371248  62.6646644  48.3507939
  24.9775248  67.6003861  33.2880052  25.1178209  68.0976325  33.9908693
  25.4757780  66.8990156  33.4294266  25.0716329  67.5705840  33.4131631
  25.0075470  68.4670972  30.6172629  25.6420550  69.0631397  30.5522091
  25.0901081  68.1674430  31.4318499  25.1132021  68.5111880  30.7275715
  37.9858036  70.9986450  43.4858993  38.5775876  71.6383700  43.5177191
  38.4217030  70.3009486  43.7751060  38.1376467  70.9904800  43.5339826
  26.5854453  64.3984948  30.5918071  26.9070294  63.9188030  29.9377333
  26.8481397  65.2084594  30.4008882  26.6720478  64.4474845  30.4673563
  29.8151426  75.4203822  44.1116887  29.3076517  75.9739669  44.5557517
  29.5178072  75.4812112  43.2935661  29.6956311  75.5110133  44.0565344
  31.9813608  63.7857142  42.9541550  32.4068679  63.3329668  42.3425076
  31.3670601  63.2317212  43.2306337  31.9542253  63.6371118  42.9046575
  21.5128458  70.6638813  33.8862175  22.0220687  71.2603320  34.2673480
  21.9862730  70.3964787  33.2038594  21.6571834  70.7124628  33.8416697
  35.0107177  68.2131668  35.7862135  34.3398367  68.7561370  35.6575201
  35.7046927  68.6826523  35.5443830  35.0136045  68.3629939  35.7317663
  35.1735305  64.6687552  38.6952509  35.5262915  64.2417275  39.3698307
  34.3150106  64.5838395  38.8253585  35.0984749  64.5932292  38.8147519
  23.8718990  67.2995071  36.7535355  23.1530979  67.7159204  37.0208219
  24.2431352  67.8649310  36.2026993  23.8210921  67.4444353  36.7118162
  33.1718570  67.9322920  42.6437351  33.1516498  67.7506216  43.4972130
  33.2197771  68.8034939  42.6196935  33.1753211  68.0339459  42.7660646
  31.1164900  74.5210112  48.5685827  31.0760755  73.8759789  47.9830983
  31.9288219  74.4646730  48.8811240  31.2308054  74.4169079  48.5282777
  29.6465564  66.3393071  32.0908735  29.0530403  66.6610068  31.5393302
  29.6840842  65.4934167  31.8829841  29.5639953  66.2617400  31.9791506
  36.6059365  59.7905964  39.6236821  36.0990229  59.0835103  39.5557999
  37.4026798  59.4599152  39.7537898  36.6486604  59.6379115  39.6335816
  32.5223381  66.2972576  35.5210485  32.2937074  66.3205277  34.6788843
  32.7821457  65.4730043  35.6405495  32.5269569  66.1788656  35.4135683
  26.8042609  68.1507049  45.1235585  26.2921512  67.5428232  45.4820616
  26.6322105  68.8663641  45.5909561  26.7032246  68.1670348  45.2451809
  21.6508324  66.5944624  47.7737947  21.4810914  67.2545999  47.2286154
  21.2074274  66.8051185  48.4950436  21.5607657  66.7230606  47.7999576
  25.5768143  64.8349122  36.8164681  26.0525509  65.1966202  36.1814862
  25.0756743  65.4905590  37.0964823  25.5733502  64.9843311  36.7641422
  38.8079505  74.3070890  32.6077686  39.1913110  75.0562246  32.8375783
  38.0123618  74.5536710  32.3489675  38.7473287  74.4540584  32.6035259
  30.6811679  66.0731294  47.5637841  31.2383110  65.8445103  46.9316306
  30.3572744  66.8336959  47.2873053  30.7158090  66.1515130  47.4294338
  18.5510388  69.4991490  43.0326437  18.0037108  68.8292135  43.1507305
  19.3402766  69.1321338  43.0969904  18.5862572  69.3456476  43.0595137
  28.3994797  69.1598947  48.5289848  29.1506124  69.4750624  48.8429402
  28.5917373  68.9578118  47.7023770  28.5386211  69.1766329  48.4533244
  27.6194796  66.9790322  30.1838065  27.9993761  66.9969951  29.3989179
  26.8787392  67.4244311  30.0628912  27.5663634  67.0472097  30.0501633
  35.2480087  65.2872513  35.7713643  35.2474313  65.1321170  36.6297920
  35.0436267  66.1335500  35.7155029  35.2179865  65.3893134  35.8901583
  17.3097358  68.7112298  40.1872460  17.1319119  68.2588907  40.9127375
  17.0216380  69.5138459  40.3710937  17.2410311  68.7634855  40.3215963
  32.9720939  69.9670015  39.4249850  33.4674604  69.2493010  39.3853870
  32.1620715  69.6640813  39.3104337  32.9264832  69.8167661  39.4023576
  28.4179550  73.8167828  31.5746855  27.6090873  73.4934502  31.5280164
  28.9254459  73.1101050  31.5075103  28.3729217  73.6649145  31.5577149
  19.0469828  71.2440021  37.2994219  18.1815347  71.2325712  37.1876990
  19.1468644  71.0570244  38.1465358  18.9343995  71.2146083  37.4083163
  35.0372758  72.7173702  42.1126979  35.4627829  72.1948124  41.5597404
  34.6729678  73.3154540  41.5915602  35.0459360  72.7283929  41.9535989
  31.6251357  76.4307967  38.4428136  32.0962535  77.1448229  38.6118122
  31.9611536  75.8306717  38.9788006  31.7446472  76.4479431  38.5460512
  33.7128342  78.0409280  50.6220208  33.8225307  77.2517841  50.9776956
  34.0419238  77.9515216  49.8194546  33.7780748  77.9115133  50.5562599
  28.5420852  61.2035437  45.3986231  28.6748758  60.4066431  45.7267207
  28.9266005  61.7301840  45.9784507  28.6177181  61.1635354  45.5329734
  32.2625303  76.2225901  45.2055829  31.7146249  75.5983785  44.9375894
  32.7238332  76.4120173  44.4899908  32.2492513  76.1584951  45.0606260
  31.6153207  58.1265763  41.9967324  30.8099171  58.0163493  42.3135163
  31.4859943  58.2278219  41.1397190  31.4773340  58.1249434  41.9175365
  35.0719168  64.2911255  42.5907021  34.4882157  64.7920462  42.1784589
  35.3923462  63.7840812  41.9571345  35.0332343  64.2903090  42.4365528
  27.6113967  63.2051850  32.8665696  28.4329661  63.3750163  32.6247391
  27.1483618  63.3599111  32.1431994  27.6645129  63.2533583  32.7237340
  26.2009299  61.1994612  43.6464125  26.7453712  60.8585739  44.2368467
  26.2546235  62.0580074  43.7885409  26.2898418  61.2749872  43.7545998
  31.8283630  77.2276974  41.7365170  32.6482004  77.0839940  41.9981465
  31.5477707  77.8523172  42.2781608  31.9080373  77.2987326  41.8553110
  38.2272752  78.8196542  38.4251360  37.8976082  79.2707686  37.7555059
  37.5517754  78.7412705  38.9724367  38.0783188  78.8747677  38.4074583
  45.4349160  74.8082065  36.6700971  45.1202601  75.4985543  37.1021393
  44.9176101  74.7526847  35.9686471  45.3113630  74.9016953  36.6297920
  36.4328706  76.8808830  33.9074308  37.1874674  77.2487147  33.6691358
  36.2556241  77.2548385  34.6753487  36.5183184  76.9907018  33.9859196
  49.7263605  83.0303271  41.9521847  48.8892026  83.1005458  42.1869442
  49.6951836  83.0327766  41.0796149  49.5981887  83.0413498  41.8581395
  40.4685490  76.2905560  33.6401445  41.1971650  76.1121515  33.1939601
  40.5580383  77.1323640  33.8508623  40.5892152  76.3889438  33.6054962
  47.4071444  78.0946052  40.5365569  48.0497353  78.1644157  41.1227485
  47.6594465  77.4275275  40.0345111  47.5393577  78.0072401  40.5492849
  42.6422727  79.1883024  38.2476522  41.9379054  78.6992209  38.4060442
  42.6907701  79.2005498  37.3764967  42.5452779  79.1172672  38.1415862
  49.8452947  82.8690690  36.2677533  49.5889512  82.0570631  36.0775416
  50.6882261  82.8768257  36.0407720  49.9318972  82.7502687  36.2062350
  44.0256039  76.8090314  41.0053687  44.4066551  76.1268485  41.3921561
  43.2219323  76.5199916  40.8229352  43.9632501  76.6657362  41.0357743
  37.9847880  79.3144512  50.8716296  37.6701321  80.0844075  50.6085858
  37.6637812  78.7514768  50.2868523  37.8906799  79.3454781  50.7457646
  35.5379777  77.7035034  36.4862492  34.6702202  77.7757633  36.5520101
  35.8254981  78.5057112  36.6750467  35.4519525  77.8329181  36.5237259
  44.6612665  77.8512893  44.8173814  45.4066257  77.6622703  44.4037239
  44.2449970  78.3771131  44.2587670  44.7097639  77.9015038  44.6738387
  44.2594308  81.3810040  40.7543458  43.4205408  81.4071319  40.5181721
  44.3298675  82.0280775  41.3348804  44.1462701  81.4806166  40.8052575
  42.7063586  78.2795417  35.4871074  43.4089939  78.0803165  35.0091032
  42.4407775  77.5071359  35.7939917  42.7710218  78.1358383  35.4616515
  37.4692142  79.5430702  44.5401954  37.2775339  79.5585836  45.3901378
  38.3190738  79.7394376  44.5168609  37.5667864  79.5745053  44.6625249
  40.3796369  79.7386211  44.7473778  40.8368983  80.4710186  44.8746570
  40.4552698  79.3152677  45.5061033  40.4587339  79.7843449  44.8774854
  44.8523695  72.9176087  38.6167620  44.9707263  73.3752550  37.8834923
  44.6785871  72.1121348  38.3303838  44.8442866  72.8669859  38.4668554
  41.8201259  74.7726889  39.5586282  40.9494817  74.7465610  39.5119592
  42.0741600  74.6004081  38.7412128  41.7294819  74.7437033  39.4306419
  38.8450399  76.7833117  41.0159753  38.3288888  76.0913309  41.1411332
  38.2844328  77.4503894  40.9622351  38.6856913  76.7796375  41.0265819
  40.9142633  77.3226077  42.8452605  40.5274386  77.3475109  43.6266135
  40.4275570  76.7567756  42.3927122  40.7855142  77.2421828  42.8940509
  40.5799775  74.2093063  45.1362865  41.2092893  74.7453363  44.8583936
  40.7485637  74.1170422  45.9876431  40.6977569  74.2754425  45.2211393
  40.3813690  78.9964258  47.4089277  41.2087119  78.7249407  47.4647891
  40.4021536  79.7925099  47.7653095  40.5066540  79.0744012  47.4704460
  44.0723693  76.7428951  38.1048167  44.2773287  76.6751259  38.9505164
  43.7450117  77.5487773  38.0369344  44.0538941  76.8514892  38.2207822
  47.3257381  77.2960716  37.5850932  46.7131694  77.7831118  37.9704664
  47.4221556  76.6204207  38.1288584  47.2495278  77.2679024  37.7229791
  41.3276462  79.0523557  32.6848432  41.7820208  79.2234117  33.4096276
  41.8016508  78.4391667  32.2846208  41.4644782  78.9874442  32.7322193
  40.5869057  77.5516350  38.8225300  39.7405102  77.7239158  38.6966650
  40.5840190  76.7465694  39.1591129  40.4616207  77.4577379  38.8536427
  41.6567358  81.3291564  39.6887358  41.1827312  80.8033327  40.1992669
  42.0285494  80.7821037  39.1202220  41.6417247  81.1707561  39.6802506
  49.9209275  83.1695397  39.0523398  49.6819045  83.1291231  38.2144183
  50.0843177  84.0166549  39.1789119  49.9099579  83.2887482  38.9476880
  42.6053222  75.9259904  44.4906980  42.1093783  76.1223578  43.7998547
  43.3622284  76.3252572  44.3195782  42.6440047  76.0137637  44.3627117
  39.8756102  79.6002249  41.0810291  39.8998589  79.0662362  40.3923071
  40.1267575  79.0919558  41.7435881  39.9166020  79.4463153  41.0774936
  36.1557424  78.3273068  40.4616035  36.1955796  78.8282274  41.1750743
  35.3307089  78.4183461  40.1921958  36.0396950  78.4154884  40.5266573
  35.3855571  78.3342470  48.3946345  36.0108274  77.7904603  48.6675777
  34.9306051  77.8537388  47.8254135  35.4103831  78.1831952  48.3507939
  42.9546191  79.3042449  42.9541550  43.3801263  78.8514976  42.3425076
  42.3403185  78.7502520  43.2306337  42.9274837  79.1556426  42.9046575
  41.3940414  75.7757549  36.3632127  40.7508732  75.6255196  36.9317265
  41.0539821  75.5299895  35.5981231  41.2485492  75.7169672  36.3335142
  46.1467888  80.1872860  38.6952509  46.4995498  79.7602583  39.3698307
  45.2882690  80.1023703  38.8253585  46.0717333  80.1117600  38.8147519
  47.5791948  75.3091272  39.6236821  47.0722813  74.6020411  39.5557999
  48.3759382  74.9784460  39.7537898  47.6219188  75.1564423  39.6335816
  43.4955964  81.8157884  35.5210485  43.2669657  81.8390585  34.6788843
  43.7554040  80.9915351  35.6405495  43.5002152  81.6973964  35.4135683
  46.2212670  80.8057821  35.7713643  46.2206897  80.6506478  36.6297920
  46.0168850  81.6520808  35.7155029  46.1912448  80.9078442  35.8901583
  39.5153436  76.7220745  45.3986231  39.6481341  75.9251739  45.7267207
  39.8998588  77.2487148  45.9784507  39.5909765  76.6820662  45.5329734
  42.5885791  73.6451071  41.9967324  41.7831755  73.5348801  42.3135163
  42.4592526  73.7463527  41.1397190  42.4505924  73.6434741  41.9175365
  46.0451751  79.8096563  42.5907021  45.4614740  80.3105770  42.1784589
  46.3656045  79.3026119  41.9571345  46.0064927  79.8088398  42.4365528
  38.5846551  78.7237158  32.8665696  39.4062245  78.8935471  32.6247391
  38.1216201  78.8784419  32.1431994  38.6377713  78.7718891  32.7237340
  37.1741882  76.7179920  43.6464125  37.7186295  76.3771047  44.2368467
  37.2278818  77.5765382  43.7885409  37.2631002  76.7935180  43.7545998
  15.0750353  15.2664033  21.6348093  15.0444358  16.1208669  21.8066363
  15.6731702  14.9659325  22.1934237  15.1587511  15.3480529  21.7422896
   8.2750038  14.3539684  26.3901024   7.4187934  14.5148182  26.4410141
   8.3217692  13.4831748  26.4106085   8.1549150  14.2490486  26.4007090
   2.6591178  23.8902402  22.1538255   1.9074077  23.5117940  21.9254300
   3.1077190  23.9220835  21.4057066   2.6140845  23.8388009  22.0095757
  11.5843755  20.6226209  35.9961480  12.2910522  20.1278240  36.1248414
  11.7731690  21.0635291  35.2664138  11.7171660  20.6144560  35.9070525
   8.1116138  24.3127771  17.5823802   7.7767506  24.9904693  17.1468025
   8.6243008  23.9233082  16.9940674   8.1381719  24.3552349  17.4310594
   7.6520429  26.2642040  23.5234914   8.0359808  26.8328938  22.9839689
   7.5879570  25.5391550  23.0440730   7.6993856  26.2417503  23.3728777
  11.1201859  16.4131728  29.0332675  11.6657819  17.0916814  29.0926645
  11.0618736  16.2719188  28.1734257  11.1917774  16.4923729  28.9144736
   4.2375934  23.9020794  24.4201028   4.3386297  23.0921148  24.7298156
   3.6417679  23.8077740  23.7900706   4.1648473  23.7685822  24.3727266
  12.8966928  17.8416335  19.9066403  12.7806454  18.5924021  20.3358541
  13.6922815  17.5840288  20.1562490  12.9971517  17.9151182  20.0070495
   4.0776674  28.8198383  25.8215884   4.7214129  29.2611547  26.2112042
   4.4032929  28.0151809  25.7346143   4.2208502  28.7663578  25.8661361
   4.7797253  21.8310358  21.1935746   5.1013094  22.3715565  20.5897054
   5.4269350  21.2607129  21.3258035   4.9223309  21.8269533  21.1242781
   6.8298961  13.8326353  21.2770132   7.5279126  14.0114480  21.7691596
   7.1451294  13.3096692  20.6540522   6.9794299  13.7820125  21.2572142
   4.4858540  18.8140810  28.4668749   5.1307542  18.3213253  28.1479698
   4.7260317  18.9565596  29.2934828   4.6169125  18.7618252  28.5418282
   7.0244631  21.6595715  28.1175642   7.3067874  20.8647121  27.8962398
   7.7530792  22.1376303  28.1380703   7.1734195  21.6130312  28.0878657
  10.6196233  18.5723979  18.2180693  10.5347529  19.4284946  18.3630262
  11.1080617  18.2968303  18.8862852  10.6785131  18.6581300  18.3382774
  11.5514667  15.1908773  19.7178428  11.0226138  15.4068407  20.3775734
  12.0739687  15.8844912  19.6379397  11.5503120  15.3251910  19.8034027
  17.0062720  20.7655078  25.0911473  16.1760423  20.9765721  25.2544889
  16.9571972  19.9392132  24.8153756  16.8769455  20.6744684  25.0748838
   5.0672457  23.5958932  27.9259382   4.5499399  23.2366347  27.3220690
   5.7646848  23.0721106  27.9365448   5.0938038  23.4656620  27.8389641
   8.7236049  24.0453746  33.8875555   8.8119395  23.8579886  34.7353765
   9.1525762  23.3991175  33.4880402   8.7998151  23.9216754  33.9547307
   6.2906509  23.3284906  32.8693217   5.7277344  22.9157516  33.3932879
   7.0527532  23.2537811  33.2886361   6.3200957  23.2562306  33.0086218
   1.8502500  25.3182927  25.4729847   2.5523080  24.8034916  25.5302604
   1.7699983  25.6457078  26.2776723   1.9426261  25.2897153  25.6002640
  16.5016678  13.4125478  28.8861894  15.6645099  13.4827665  29.1209488
  16.4704909  13.4149973  28.0136196  16.3734960  13.4235705  28.7921442
   2.8981407  15.5558514  34.6010263   3.0701911  15.4464409  35.4495544
   3.4350764  16.2012919  34.3641455   3.0026411  15.6350516  34.6915359
   1.1753276  21.5089279  24.9815455   2.0142175  21.7412212  25.0289217
   1.2065045  20.6393590  24.9122491   1.3034993  21.4146225  24.9780100
   1.8005979  21.9290154  29.2828761   2.3404204  21.7861285  29.9532133
   1.1175925  22.3286905  29.6512787   1.7798133  21.9669825  29.4363183
  11.2246864  17.6081155  24.4773785  11.9804379  18.0412669  24.5162694
  11.3309188  16.9585925  25.0508421  11.3517034  17.5758639  24.5671811
  14.2627035  21.4354432  25.2276188  13.8262267  21.4391174  25.9835160
  13.9289950  22.1159931  24.7955766  14.1489655  21.5366888  25.2757021
   8.8356108  23.4762765  36.5519339   9.6196525  23.5893613  36.9175081
   8.6352703  22.6503902  36.7478025   8.9222134  23.3709484  36.6353725
  14.1824518   8.4768260  27.4705616  14.8250426   8.5466364  28.0567532
  14.4347538   7.8097483  26.9685158  14.3146650   8.3894609  27.4832896
   8.9926502  25.3872867  30.1985794   8.1941747  25.1472367  30.4559663
   9.4412513  25.4387260  30.9452842   8.9401113  25.3595258  30.3470719
  17.3971381  18.1535352  24.1195826  18.0587815  17.5926020  24.0191734
  16.7562793  17.6587383  24.4448517  17.4000248  17.9971761  24.1528166
   8.2848189  21.4505483  16.4276749   8.6999337  21.1190507  15.7361245
   7.4540118  21.2174386  16.2996886   8.2236197  21.3676739  16.3067596
  13.6836212  19.1700734  23.8607814  13.9191801  19.3145933  23.0334665
  13.8325775  19.9343142  24.2539328  13.7402015  19.3039789  23.7971418
   0.6782289  15.6534227  33.2257035   1.4022261  15.6387258  33.7121930
   0.7798426  16.3629582  32.7279004   0.8000498  15.7558930  33.2235822
  15.5126668  18.0102400  21.6977418  15.8434886  18.5430040  21.0917513
  16.0859757  18.0641288  22.3539369  15.6460348  18.0971969  21.7055200
   8.0527239  19.1333312  38.0905982   7.2600219  19.4476824  38.2758602
   8.1676166  19.3484780  37.2526767   7.9522649  19.2117149  37.9944317
  10.7258558  15.8567303  22.3800998  10.8205412  16.5956597  22.8340624
  10.1017401  15.4284778  22.8135563  10.6467588  15.9028624  22.5109146
   8.9811031  19.0353516  33.0291279   9.5549893  18.3980760  33.1839843
   8.9025835  19.0357598  32.1600937   9.0544266  18.9418627  32.9237690
   4.3374750  17.4676781  25.0812477   4.0793994  16.6348516  25.0543776
   4.3923233  17.6934394  24.2404977   4.3074528  17.3774552  24.9532613
   9.4175800   9.5705231  25.1816569   8.7132127   9.0814417  25.3400488
   9.4660774   9.5827706  24.3105014   9.3205852   9.4994879  25.0755909
   3.3109462  15.0214543  25.5677371   2.7359053  15.1806712  26.2041332
   2.9345138  14.3849952  25.1045822   3.1712275  14.9512356  25.5931930
   6.9782751  13.4937892  30.4269750   6.5897184  13.0692110  29.7721941
   6.3137449  13.7420042  30.9346776   6.8229679  13.4676614  30.4057618
  16.6206020  13.2512897  23.2017580  16.3642585  12.4392839  23.0115463
  17.4635334  13.2590464  22.9747767  16.7072045  13.1324895  23.1402397
  10.8009112   7.1912521  27.9393734  11.1819624   6.5090692  28.3261608
   9.9972397   6.9022123  27.7569398  10.7385574   7.0479570  27.9697790
   8.0821689  17.7236497  18.6246557   8.8962328  18.0151390  18.5129328
   8.0180830  17.0696359  18.0504850   8.1924428  17.6701692  18.5235394
  14.3031179  20.4062493  33.0376132  14.0669817  19.5750558  32.9188193
  14.9474408  20.3548100  33.6230977  14.3625850  20.2760181  33.1062026
   3.9529597  21.1958014  23.7518869   4.5903544  20.9569762  24.2970662
   4.3784669  21.3995173  23.0172029   4.1105764  21.1909025  23.7236026
  15.3267600  20.1906942  29.1004427  15.0213417  20.9234999  29.4617743
  14.6073816  19.7844871  28.8197213  15.1754942  20.2388675  29.1117564
   6.3351069  21.6730437  25.4312655   6.4090078  21.5105609  26.2854505
   7.1520576  21.8620627  25.1873137   6.4667428  21.6767179  25.5210681
  21.0269392  16.8299943  28.4272771  20.9593892  16.8495902  27.5575358
  21.0125054  17.6730270  28.6528442  21.0148148  16.9573677  28.3325248
  11.4365738   8.2335100  31.7513861  12.1819330   8.0444911  31.3377286
  11.0203043   8.7593338  31.1927717  11.4850713   8.2837246  31.6078434
   4.8755655  24.6365180  20.1626128   5.1653953  24.2454162  19.4385355
   5.6059136  24.8181885  20.6031404   5.0262539  24.6058994  20.1208936
  18.8128009  15.6044329  26.7019366  19.3635931  14.9712398  26.9416458
  18.7972125  16.1359722  27.3934870  18.8913206  15.5893277  26.8398224
   5.4650400  19.4382926  31.2479259   4.9662094  20.1498694  31.3264147
   6.2750624  19.7583593  31.2097421   5.5106507  19.5909775  31.2535828
   2.8161571  26.6132563  23.2286278   2.5961866  26.3229917  24.0212945
   2.5956093  25.9547518  22.7004191   2.7509165  26.4732271  23.2675187
   1.7278518  18.7005879  25.4941980   1.4391766  18.0743350  26.0287707
   2.5961866  18.6426167  25.5606660   1.8138770  18.5993423  25.5832934
  12.5156416  13.8440662  25.8123962  12.1721181  13.1230998  26.1631211
  12.6149458  13.6354514  24.9702320  12.4798458  13.7064866  25.7395642
   4.9829526  27.9861953  22.0116971   5.6353584  27.4538395  22.2407997
   4.2855135  27.6330605  22.3984845   4.9760244  27.8551476  22.1029138
   1.9310791  20.3401130  21.4184345   2.6856759  20.7214169  21.6319807
   1.3381404  20.7912274  21.8731041   1.9547505  20.4629958  21.5167223
  12.9769445  20.3066367  21.3547950  13.5427477  20.9659576  21.2706493
  12.3297348  20.6516065  21.8264352  12.9648201  20.4548308  21.4120706
   4.3917458  12.2963971  36.5441557   3.5817234  12.6021750  36.4331400
   4.8692145  13.0169553  36.6594141   4.3420937  12.4478572  36.5448628
   3.2509018  21.5109691  26.7924460   2.7289771  21.6509983  27.4776325
   3.6383038  20.7520356  26.9826578   3.2312719  21.4195215  26.9225537
   9.4476023  23.2505151  20.7785029   9.2062699  22.5173011  20.3712094
   9.6277356  23.7992008  20.1251362   9.4383647  23.2227542  20.6215252
   4.6775343  18.5413711  22.1905951   4.4818126  19.1488445  21.5966254
   4.9009689  17.8481655  21.7097625   4.6809984  18.5291236  22.0322032
   3.0753873  15.4268448  22.3086820   3.7976525  15.5909607  21.8490626
   2.5961866  16.1478113  22.2026159   3.1117604  15.5566678  22.2252434
  11.0347381  11.7632247  27.6883505  10.1958482  11.7893526  27.4521768
  11.1051748  12.4102983  28.2688851  10.9215774  11.8628373  27.7392622
   9.4816659   8.6617624  22.4211121  10.1843012   8.4625373  21.9431079
   9.2160848   7.8893567  22.7279964   9.5463292   8.5180590  22.3956562
  14.9104905  16.9700234  24.9744746  14.8238879  17.1255660  25.8279525
  14.4555385  17.6138310  24.6004151  14.8308161  17.0875989  25.0451853
   4.2445215   9.9252909  31.4742001   4.0528412   9.9408044  32.3241425
   5.0943811  10.1216584  31.4508656   4.3420937   9.9567261  31.5965296
   8.7830721  14.2910981  23.5970306   8.5365435  14.2106732  24.4307095
   9.1115844  13.5064449  23.4032833   8.7951964  14.1637246  23.6917829
  12.6778770  20.9994340  27.3857087  12.5393129  21.6975386  27.8905830
  11.8978768  20.8442997  27.0293269  12.5421997  21.0794507  27.4083361
  11.0156855  17.2990716  33.6379469  11.0104893  16.4270532  33.6421895
  11.7217849  17.4978885  33.1648925  11.1201859  17.1994590  33.5686504
   4.7427748  17.0267700  33.0093289   4.8871124  17.6068908  32.3736399
   5.0903397  17.4043996  33.7143144   4.8155209  17.1688404  33.0192284
   6.9147665  16.2257868  30.7918421   6.1670980  16.4188882  30.3866699
   7.0689191  15.4003088  30.5542542   6.8270093  16.1322979  30.6963826
   3.8155503  25.2170472  29.8754316   3.9645067  24.6573387  29.2227720
   4.5955505  25.2962473  30.2586835   3.9529597  25.1456037  29.8351265
  14.1732143  20.3572594  18.1473586  13.7938951  19.5709732  18.1402876
  13.5098388  20.9059451  18.0045231  14.0190617  20.3217418  18.1254383
   6.3408804  25.3885114  31.1538807   6.2652475  24.7193925  31.7089595
   6.2698663  26.0902903  31.6679473   6.3189411  25.3930022  31.3115655
   7.1549443  10.1208419  31.6813824   7.6122057  10.8532393  31.8086617
   7.2305771   9.6974884  32.4401080   7.2340412  10.1665657  31.8114901
   6.9979051  23.9086113  21.9862413   7.7628942  23.6395757  21.6645077
   6.8957141  23.4236124  22.7032475   7.0960546  23.7975678  22.0442240
   5.0331820  12.1110523  28.5255648   4.2427895  11.9301983  28.8472984
   5.4292443  11.3337475  28.5085943   4.9748697  11.9697984  28.5708197
  10.4175507  19.7452953  26.2515094   9.7420509  19.5138185  26.7528481
  10.4267883  19.1374136  25.6257199  10.3194011  19.6211878  26.2331247
   7.5469651  14.5870782  33.0079147   7.4828792  15.4480738  32.8799284
   7.6866838  14.2702775  32.2074699   7.5585121  14.6670948  32.8707360
  12.4192241  22.6018085  18.4825272  12.5012079  23.4085071  18.1586723
  12.9041983  22.6214044  19.2066046  12.5029399  22.7238748  18.5412171
   6.2288745  17.2802921  27.1495350   5.8050994  17.4807420  26.4134369
   6.0533600  16.4331769  27.2619650   6.1399625  17.1851703  27.0569040
   5.7300438  28.7953434  29.6116807   6.2196368  28.0964223  29.4292472
   5.1584670  28.4977304  30.1992865   5.7184968  28.6479658  29.6717848
   1.5171190  17.7754973  22.5823323   1.6735809  17.7101775  23.4379315
   1.8571783  18.5503525  22.3702002   1.5904424  17.8804171  22.6777917
   8.0550334  17.1512856  21.4516686   8.5965880  16.6483237  21.9155306
   8.3696893  17.0978051  20.6406171   8.1814731  17.0692277  21.4000498
  11.9267442  21.3615504  38.5643598  12.7402307  21.0900652  38.7248731
  11.7662408  21.0623044  37.7603794  12.0237390  21.2770430  38.4689004
   6.2236784  22.5430208  18.7356714   6.2929604  21.6844746  18.8749714
   7.0025239  22.7602089  18.4075739   6.3489634  22.4483072  18.7073871
   9.2039604  12.0449161  31.5038986   9.4181573  11.4060075  30.9502340
   8.5873503  12.4894985  31.0746848   9.1444933  12.0159304  31.3589417
  10.6144271  24.9667909  22.9493207  10.2224063  24.6634624  22.2316073
  10.7697344  25.8036999  22.7598161  10.5797861  25.0451746  22.8149704
  11.3678692  13.6538226  32.4422293  10.5555373  13.3464116  32.5235466
  11.8268626  13.1737226  33.0065006  11.3159076  13.5374718  32.5376888
  10.7783946  21.5317898  22.8899238  10.4198601  21.7032541  23.6663270
  10.2922657  21.9931104  22.3327236  10.6542643  21.6256869  22.9224507
   8.4632199  15.0598297  37.2250996   8.9331830  15.6840414  37.6118870
   8.5094079  14.3915273  37.7844210   8.5400075  15.0532978  37.3651067
  11.9388686  22.4221794  33.8366439  12.5768406  21.9281989  33.5028895
  11.2962777  22.3499194  33.2518666  11.9382912  22.3380802  33.7008794
  13.6645686  14.2710940  28.4032354  13.2373294  14.1837288  27.6480454
  13.0271739  14.3788715  28.9887198  13.5075293  14.2743600  28.3777796
   7.1566763   9.3786465  34.3429324   7.9840192   9.1071614  34.3987938
   7.1774609  10.1747307  34.6993142   7.2819613   9.4566219  34.4044507
  11.9942942  23.1141602  30.4771795  12.7835320  22.7630667  30.5973877
  12.1686540  23.9277991  30.2148429  12.1363224  23.1827459  30.4559663
   1.7336253  16.5250328  27.5299584   0.8924259  16.4254202  27.7378478
   1.9426261  17.2945808  27.8813905   1.6400945  16.6242371  27.6126899
  10.8476766   7.1251159  25.0388214  11.0526360   7.0573467  25.8845211
  10.5203190   7.9309980  24.9709391  10.8292014   7.2337099  25.1547869
   5.5452917  14.4531727  26.7797182   5.2416055  13.8987715  27.3807589
   4.8432338  14.6323937  26.2925216   5.3969127  14.3976509  26.7966887
   3.6071268  21.6681448  31.4869280   3.4991623  21.6783510  32.3531338
   3.8167050  22.4936228  31.2974233   3.6221380  21.7922523  31.5873371
  14.1010454   7.6782923  24.5190979  13.4884768   8.1653325  24.9044711
  14.1974629   7.0026414  25.0628630  14.0248352   7.6501232  24.6569838
   1.6245060  18.9194090  28.9491217   1.0332994  19.5603588  28.9194232
   2.3866084  19.3431707  28.9222517   1.6493321  19.0769929  28.9406364
   3.6689033  10.7462783  34.1831262   3.2774598  10.0996130  34.6187040
   3.8374896  11.3374218  34.8025517   3.6359943  10.7377051  34.3393968
  17.7435482  18.7499860  29.9468495  17.8018606  19.1986509  30.6928472
  17.1101950  19.1598673  29.5098575  17.6586777  18.8773594  29.9921044
  11.3834577  24.3703402  26.3823242  11.1854265  24.8594216  25.6879453
  10.7622288  24.5744643  26.9607375  11.2622141  24.4719940  26.3646465
   5.4442555  16.1388299  20.7233486   6.1884600  16.5262575  20.9616436
   5.5903251  15.2945724  20.8873974   5.5753140  16.0718771  20.7827456
   8.4320431  11.7113772  26.6227405   7.9580385  11.1855534  27.1332716
   8.8038567  11.1643245  26.0542267   8.4170320  11.5529768  26.6142552
  14.6957162  16.7716148  28.0334186  14.4555384  15.9322563  28.0376612
  15.1749169  16.8516314  28.7574959  14.7309345  16.6597547  28.1408988
  16.6962349  13.5517605  25.9863445  16.4572118  13.5113439  25.1484229
  16.8596250  14.3988757  26.1129166  16.6852652  13.6709690  25.8816927
  13.3008379  17.9367554  31.9168490  14.0242578  17.4840080  31.7379510
  13.0358341  18.2172220  31.1340818  13.3689652  17.9118523  31.7747205
   2.1695247  12.5327728  28.6521369   1.5448317  12.5446120  28.0447322
   1.8340842  13.0087903  29.3012609   2.0280739  12.6046245  28.6577938
   9.9141013  21.1753890  18.8162816  10.6375212  21.6412003  18.6727389
   9.4741604  21.2427500  18.0660413   9.9556705  21.2537727  18.6847597
   9.0827168  18.0351432  30.0663505   8.4684161  17.4909483  30.3612140
   9.5994453  17.5215669  29.5869321   9.0682831  17.8787841  30.0387733
   8.3223465  19.1055702  27.8007804   7.8951073  18.4805421  27.3673239
   8.3148410  18.8230624  28.6266811   8.2582607  18.9708483  27.8587631
   1.4385992  14.1420875  30.8696238   1.5979479  13.3864200  31.2747960
   1.2578886  14.6911815  31.5236975   1.4351351  14.1114689  31.0258944
   9.3806295   6.3082111  31.4247027   8.8846857   6.5045785  30.7338594
  10.1375357   6.7074779  31.2535829   9.4193120   6.3959845  31.2967164
   6.6509175   9.9824457  28.0150338   6.6751662   9.4484569  27.3263118
   6.9020649   9.4741766  28.6775928   6.6919094   9.8285361  28.0114982
   5.1140110  18.2756015  35.4976377   4.2635741  18.4127729  35.6334022
   5.2768238  17.5419793  35.9424078   5.0123974  18.1870116  35.5831976
   4.3524861  15.2255785  29.6929981   3.5216790  15.3929603  29.4865229
   4.2976378  14.8491736  30.4778866   4.2214276  15.1945516  29.7778509
  15.7343693  16.8993965  30.4199040  16.3261533  17.5391216  30.4517238
  16.1702687  16.2017002  30.7091107  15.8862124  16.8912315  30.4679872
   7.5637082  21.3211337  31.0456934   7.0562174  21.8747184  31.4897564
   7.2663729  21.3819627  30.2275708   7.4441967  21.4117648  30.9905390
   9.7299265   9.6864657  29.8881597  10.1554336   9.2337183  29.2765123
   9.1156258   9.1324728  30.1646384   9.7027910   9.5378633  29.8386622
  10.1744863  25.2374595  18.9760877   9.4574172  25.0635457  18.5108114
  10.8251600  25.0027167  18.4436363  10.1646713  25.1770387  18.8290095
  12.7592834  14.1139183  22.7202182  12.0884024  14.6568886  22.5915248
  13.4532584  14.5834039  22.4783877  12.7621702  14.2637455  22.6657710
   6.8079568  26.2535895  27.9513941   6.5845222  25.4954725  28.3197967
   6.3189411  26.2833917  27.2294380   6.7023017  26.1458120  27.8990681
  12.9220961  10.5695067  25.6292555  13.2748572  10.1424790  26.3038354
  12.0635763  10.4845911  25.7593632  12.8470406  10.4939808  25.7487566
   1.6204646  13.2002587  23.6875402   0.9016636  13.6166719  23.9548266
   1.9917009  13.7656826  23.1367040   1.5696578  13.3451868  23.6458209
  10.9204227  13.8330436  29.5777398  10.9002155  13.6513731  30.4312177
  10.9683428  14.7042454  29.5536981  10.9238868  13.9346974  29.7000692
   8.8650557  20.4217628  35.5025874   8.8246412  19.7767305  34.9171030
   9.6773875  20.3654245  35.8151286   8.9793711  20.3176595  35.4622823
   5.4558025  26.4736354  25.4051025   5.0418423  25.8110484  25.0154867
   6.1405399  26.6214212  24.8846719   5.4956396  26.3977012  25.2707522
   8.8223319  25.6326439  26.1574642   8.4239602  25.7428709  25.3895462
   8.2074538  25.8408505  26.7401202   8.6722208  25.6800007  26.1305941
  14.3545022   5.6913479  26.5576868  13.8475886   4.9842619  26.4898045
  15.1512455   5.3606668  26.6877945  14.3972261   5.5386630  26.5675863
  10.2709037  12.1980091  22.4550532  10.0422730  12.2212793  21.6128890
  10.5307114  11.3737558  22.5745542  10.2755225  12.0796171  22.3475729
   4.5528266  14.0514564  32.0575632   4.0407169  13.4435747  32.4160663
   4.3807762  14.7671157  32.5249608   4.4517903  14.0677864  32.1791856
   3.3253800  10.7356638  23.7504727   3.8011166  11.0973717  23.1154908
   2.8242400  11.3913105  24.0304870   3.3219159  10.8850826  23.6981468
  16.5565161  20.2078406  19.5417732  16.9398767  20.9569762  19.7715829
  15.7609275  20.4544225  19.2829721  16.4958944  20.3548099  19.5375306
   8.4297336  11.9738809  34.4977887   8.9868766  11.7452618  33.8656353
   8.1058401  12.7344475  34.2213100   8.4643746  12.0522646  34.3634385
   6.1480453  15.0606462  35.4629895   6.8991780  15.3758139  35.7769449
   6.3403030  14.8585633  34.6363816   6.2871868  15.0773844  35.3873290
  12.9965744  11.1880028  22.7053690  12.9959970  11.0328685  23.5637966
  12.7921924  12.0343016  22.6495076  12.9665521  11.2900649  22.8241629
  10.7206596  15.8677530  26.3589897  11.2160261  15.1500525  26.3193917
   9.9106371  15.5648328  26.2444384  10.6750489  15.7175177  26.3363623
   6.1665207  19.7175344  18.5086901   5.3576530  19.3942017  18.4620211
   6.6740116  19.0108566  18.4415150   6.1214874  19.5656660  18.4917196
  12.7858415  18.6181218  29.0467026  13.2113486  18.0955640  28.4937451
  12.4215334  19.2162055  28.5255649  12.7945017  18.6291445  28.8876035
   2.4212494  26.9145435  27.8064371   2.7359053  27.7281824  27.8142153
   2.8305908  26.5295654  28.4746530   2.5280592  26.9774138  27.9068463
   9.3737014  22.3315482  25.3768183   9.8448192  23.0455745  25.5458168
   9.7097192  21.7314232  25.9128053   9.4932129  22.3486946  25.4800559
  11.4613999  23.9416795  37.5560255  11.5710964  23.1525356  37.9117002
  11.7904895  23.8522732  36.7534593  11.5266404  23.8122648  37.4902646
  10.0110960  22.1233416  32.1395876   9.4631906  21.4991300  31.8715941
  10.4723989  22.3127688  31.4239955   9.9978170  22.0592466  31.9946307
  12.8204825  10.1918771  29.5247068  12.2367813  10.6927977  29.1124635
  13.1409119   9.6848327  28.8911391  12.7818000  10.1910606  29.3705575
   9.5769287  23.1284489  28.6705217  10.3967660  22.9847455  28.9321512
   9.2963364  23.7530688  29.2121655   9.6566030  23.1994841  28.7893156
  19.2482622  29.8724992  26.3901024  18.3920517  30.0333490  26.4410141
  19.2950276  29.0017056  26.4106085  19.1281733  29.7675793  26.4007090
  13.6323762  39.4087709  22.1538255  12.8806661  39.0303248  21.9254300
  14.0809773  39.4406143  21.4057066  13.5873428  39.3573317  22.0095757
  19.0848721  39.8313079  17.5823802  18.7500090  40.5090001  17.1468025
  19.5975592  39.4418390  16.9940674  19.1114303  39.8737657  17.4310594
  18.6253013  41.7827348  23.5234914  19.0092392  42.3514246  22.9839689
  18.5612154  41.0576858  23.0440730  18.6726440  41.7602811  23.3728777
  15.2108518  39.4206102  24.4201028  15.3118881  38.6106456  24.7298156
  14.6150263  39.3263048  23.7900706  15.1381056  39.2871130  24.3727266
  23.8699511  33.3601643  19.9066403  23.7539037  34.1109329  20.3358541
  24.6655398  33.1025596  20.1562490  23.9704101  33.4336490  20.0070495
  15.0509257  44.3383691  25.8215884  15.6946713  44.7796855  26.2112042
  15.3765513  43.5337117  25.7346143  15.1941086  44.2848886  25.8661361
   8.4073562  35.4426388  24.0453361   8.1723746  34.6094041  23.9385630
   8.5459203  35.7231054  23.2314562   8.3929224  35.3609892  23.9095716
  10.7063649  27.6112119  26.9437669  10.0868681  27.0204766  26.7747684
  10.6047513  28.2023554  26.3101992  10.6001325  27.6116201  26.8242659
  15.7529837  37.3495666  21.1935746  16.0745678  37.8900873  20.5897054
  16.4001934  36.7792437  21.3258035  15.8955892  37.3454841  21.1242781
  17.8031545  29.3511661  21.2770132  18.5011710  29.5299788  21.7691596
  18.1183878  28.8282000  20.6540522  17.9526882  29.3005433  21.2572142
  10.4332782  31.1564401  29.1881238  10.3091479  31.7426846  29.8231057
  11.0851067  30.6624596  29.4893513  10.5106432  31.1703205  29.3267167
  17.9919480  35.7382106  21.2649924  18.4313116  35.1299206  21.7104697
  17.8424143  35.3589479  20.4935389  18.0340946  35.5920577  21.2169091
  15.4591123  34.3326117  28.4668749  16.1040126  33.8398561  28.1479698
  15.6992900  34.4750904  29.2934828  15.5901709  34.2803560  28.5418282
  17.9977215  37.1781023  28.1175642  18.2800458  36.3832429  27.8962398
  18.7263375  37.6561611  28.1380703  18.1466779  37.1315620  28.0878657
  15.9758409  24.7204057  25.3591407  15.6461739  25.1715201  24.6895106
  15.3003410  24.6420221  25.9064413  15.8268845  24.7755192  25.3414630
  21.5928817  34.0909287  18.2180693  21.5080112  34.9470254  18.3630262
  22.0813200  33.8153611  18.8862852  21.6517714  34.1766608  18.3382774
  23.1834816  20.7089580  23.6041018  22.8688257  21.3993059  24.0361440
  22.6661758  20.6534362  22.9026518  23.0599287  20.8024469  23.5637967
  22.5247250  30.7094081  19.7178428  21.9958722  30.9253715  20.3775734
  23.0472270  31.4030220  19.6379397  22.5235703  30.8437218  19.8034027
  14.4146858  34.6057298  18.5185896  13.8304073  35.1107329  18.9251760
  14.0116953  34.3799685  17.7782488  14.2686162  34.6465546  18.4690921
   9.9690887  40.3212059  25.3209568   9.4858465  41.0462549  25.2969151
  10.7814205  40.6188189  25.4319725  10.0181634  40.4714413  25.3336847
  16.0405041  39.1144240  27.9259382  15.5231982  38.7551655  27.3220690
  16.7379432  38.5906414  27.9365448  16.0670622  38.9841928  27.8389641
  18.8724072  30.8522950  16.9954817  19.1120076  31.0600934  16.1830160
  19.1939913  30.0480459  17.1043761  18.9561230  30.7637051  16.8915370
  14.1814363  22.7816346  20.8414355  14.9360331  23.1494663  20.6031405
  14.0041897  23.1555900  21.6093534  14.2668841  22.8914534  20.9199243
  12.8235084  40.8368235  25.4729847  13.5255663  40.3220224  25.5302604
  12.7432567  41.1642386  26.2776723  12.9158844  40.8082461  25.6002640
  13.8713990  31.0743822  34.6010263  14.0434494  30.9649716  35.4495544
  14.4083348  31.7198227  34.3641455  13.9758994  31.1535824  34.6915359
  12.5371427  25.1886665  17.5392468  12.3547001  25.4058545  16.7133460
  13.3997040  25.3025677  17.5951082  12.6376017  25.2376563  17.4246955
  12.1485859  37.0274587  24.9815455  12.9874759  37.2597520  25.0289217
  12.1797628  36.1578898  24.9122491  12.2767577  36.9331533  24.9780100
  12.7738562  37.4475462  29.2828761  13.3136787  37.3046593  29.9532133
  12.0908509  37.8472213  29.6512787  12.7530716  37.4855133  29.4363183
  18.2171147  22.1913075  20.5741491  18.9457307  22.0129030  20.1279648
  18.3066039  23.0331155  20.7848670  18.3377809  22.2896954  20.5395009
   8.1775707  33.6675753  29.4363183   7.9114123  32.8514870  29.5954173
   8.1914272  33.7128908  28.5658698   8.1400430  33.5532658  29.3316665
  12.0833454  28.4660837  16.0514941  11.3691632  28.1799017  16.4637373
  12.5677423  28.8057463  16.6921328  12.0492818  28.4742487  16.2070576
  12.9274314  27.2054131  32.0830190  12.2346111  26.7351111  32.3290922
  13.5434641  26.9792436  32.6571897  12.9158844  27.1021263  32.2039343
  19.2580772  36.9690791  16.4276749  19.6731921  36.6375815  15.7361245
  18.4272702  36.7359694  16.2996886  19.1968781  36.8862047  16.3067596
   8.5869121  34.4534532  26.7174927   8.4044694  34.4281418  25.8647219
   9.3218790  34.9233470  26.7563836   8.6683185  34.5195895  26.5972845
  11.6514873  31.1719535  33.2257035  12.3754845  31.1572566  33.7121930
  11.7531009  31.8814890  32.7279004  11.7733082  31.2744238  33.2235822
  26.4859252  33.5287708  21.6977418  26.8167469  34.0615348  21.0917513
  27.0592340  33.5826596  22.3539369  26.6192931  33.6157277  21.7055200
  19.0259822  34.6518620  38.0905982  18.2332803  34.9662132  38.2758602
  19.1408749  34.8670088  37.2526767  18.9255233  34.7302456  37.9944317
  21.6991141  31.3752611  22.3800998  21.7937996  32.1141905  22.8340624
  21.0749985  30.9470086  22.8135563  21.6200171  31.4213931  22.5109146
   8.5540031  31.3328033  26.8673993   9.1313534  31.1964484  27.5066239
   7.8554093  30.8763817  27.1219578   8.5361053  31.2450299  26.9996283
  21.9514162  33.2201351  15.6137950  21.8694325  33.2903538  16.4792937
  22.5893883  33.7831095  15.4221691  22.0334000  33.3140322  15.7127900
  15.3107334  32.9862089  25.0812477  15.0526578  32.1533823  25.0543776
  15.3655816  33.2119702  24.2404977  15.2807111  32.8959860  24.9532613
  20.3908384  25.0890539  25.1816569  19.6864710  24.5999725  25.3400488
  20.4393358  25.1013014  24.3105014  20.2938435  25.0180187  25.0755909
  14.2842046  30.5399851  25.5677371  13.7091637  30.6992019  26.2041332
  13.9077722  29.9035260  25.1045822  14.1444858  30.4697664  25.5931930
  17.9515334  29.0123200  30.4269750  17.5629767  28.5877418  29.7721941
  17.2870033  29.2605350  30.9346776  17.7962262  28.9861921  30.4057618
   4.0298865  30.1839926  23.5821812   4.1159116  29.8071794  24.3635342
   4.6574662  29.8100371  23.1041770   4.1355416  30.0725408  23.6267289
  19.0554273  33.2421805  18.6246557  19.8694911  33.5336698  18.5129328
  18.9913414  32.5881667  18.0504850  19.1657012  33.1887000  18.5235394
  14.9262181  36.7143322  23.7518869  15.5636128  36.4755070  24.2970662
  15.3517252  36.9180481  23.0172029  15.0838347  36.7094333  23.7236026
   9.6174823  38.9531659  27.6353173   9.6578969  39.2246510  26.8072952
  10.1769347  39.4773567  28.0510961   9.7058169  39.0707414  27.5745061
  15.5664996  31.9345612  18.0893758  15.9510149  31.7153319  18.8410303
  15.3176616  32.7608558  18.2194835  15.5867069  32.0243758  18.2194835
  15.7333536  25.2152027  37.8056342  15.4186977  25.9851590  37.5425905
  15.4123469  24.6522283  37.2208569  15.6392455  25.2462296  37.6797692
  17.3083653  37.1915745  25.4312655  17.3822661  37.0290917  26.2854505
  18.1253159  37.3805935  25.1873137  17.4400011  37.1952487  25.5210681
  11.0689410  37.5373608  22.4607099  10.2427527  37.7835345  22.3341377
  11.1301401  37.4585689  23.3269157  10.9563577  37.5618557  22.5696043
  13.2865433  23.6042549  23.4202539  12.4187859  23.6765148  23.4860148
  13.5740638  24.4064628  23.6090514  13.2005181  23.7336696  23.4577305
  15.8488239  40.1550488  20.1626128  16.1386537  39.7639469  19.4385355
  16.5791719  40.3367193  20.6031404  15.9995123  40.1244302  20.1208936
  16.4382984  34.9568234  31.2479259  15.9394677  35.6684002  31.3264147
  17.2483208  35.2768901  31.2097421  16.4839090  35.1095083  31.2535828
  13.7894154  42.1317871  23.2286278  13.5694450  41.8415225  24.0212945
  13.5688676  41.4732826  22.7004191  13.7241748  41.9917579  23.2675187
  12.7011101  34.2191187  25.4941980  12.4124350  33.5928658  26.0287707
  13.5694449  34.1611474  25.5606660  12.7871353  34.1178731  25.5832934
  15.9562110  43.5047260  22.0116971  16.6086168  42.9723703  22.2407997
  15.2587719  43.1515913  22.3984845  15.9492828  43.3736783  22.1029138
  12.9043375  35.8586438  21.4184345  13.6589343  36.2399477  21.6319807
  12.3113987  36.3097582  21.8731041  12.9280088  35.9815265  21.5167223
  23.9502028  35.8251674  21.3547950  24.5160061  36.4844884  21.2706493
  23.3029932  36.1701373  21.8264352  23.9380785  35.9733616  21.4120706
  15.3650042  27.8149278  36.5441557  14.5549817  28.1207058  36.4331400
  15.8424728  28.5354861  36.6594141  15.3153521  27.9663880  36.5448628
  14.2241601  37.0294999  26.7924460  13.7022355  37.1695291  27.4776325
  14.6115622  36.2705664  26.9826578  14.2045302  36.9380523  26.9225537
  11.2132785  27.0800808  20.8619415  10.9257581  26.7102079  20.1251362
  11.9003254  27.5495663  20.6003120  11.2721683  27.0947778  20.7134491
  20.4208606  38.7690459  20.7785029  20.1795282  38.0358319  20.3712094
  20.6009939  39.3177316  20.1251362  20.4116230  38.7412850  20.6215252
  15.6507927  34.0599018  22.1905951  15.4550710  34.6673753  21.5966254
  15.8742273  33.3666962  21.7097625  15.6542568  34.0476544  22.0322032
  14.0486457  30.9453756  22.3086820  14.7709109  31.1094914  21.8490626
  13.5694450  31.6663421  22.2026159  14.0850188  31.0751986  22.2252434
  11.6994074  33.3511829  31.4140960  12.2115171  33.6296082  30.7649719
  11.4130416  34.0901123  31.7803773  11.7328937  33.5014182  31.3730838
  20.4549243  24.1802932  22.4211121  21.1575596  23.9810681  21.9431079
  20.1893432  23.4078875  22.7279964  20.5195875  24.0365898  22.3956562
   8.7860980  27.8582021  21.7104696   8.8877116  28.6608182  22.0385672
   9.5816867  27.6569357  21.4127777   8.9188886  27.9467919  21.7140051
  15.2177799  25.4438217  31.4742001  15.0260996  25.4593352  32.3241425
  16.0676395  25.6401892  31.4508656  15.3153521  25.4752569  31.5965296
   9.6024712  27.9729199  29.4525818   9.4610204  27.1213140  29.5770326
   9.8865275  28.0157859  28.6288024   9.6232558  27.8528949  29.3493442
  19.7563304  29.8096289  23.5970306  19.5098019  29.7292040  24.4307095
  20.0848427  29.0249757  23.4032833  19.7684548  29.6822554  23.6917829
  15.7160332  32.5453008  33.0093289  15.8603707  33.1254216  32.3736399
  16.0635980  32.9229304  33.7143144  15.7887793  32.6873712  33.0192284
  14.7888087  40.7355779  29.8754316  14.9377650  40.1758695  29.2227720
  15.5688089  40.8147781  30.2586835  14.9262180  40.6641345  29.8351265
  25.1464726  35.8757902  18.1473586  24.7671535  35.0895040  18.1402876
  24.4830972  36.4244759  18.0045231  24.9923201  35.8402726  18.1254383
  18.1282026  25.6393727  31.6813824  18.5854640  26.3717701  31.8086617
  18.2038355  25.2160192  32.4401080  18.2072996  25.6850965  31.8114901
  10.3715017  25.8859546  32.7703268   9.8357207  25.2739905  33.0864035
  10.4332782  26.4607682  33.4236935  10.3010650  25.8806474  32.9138695
  22.6009352  18.8183602  25.5507667  22.7192920  19.2760065  24.8174970
  22.4271528  18.0128863  25.2643885  22.5928523  18.7677374  25.4008601
  17.9711634  39.4271421  21.9862413  18.7361525  39.1581065  21.6645077
  17.8689724  38.9421432  22.7032475  18.0693130  39.3160986  22.0442240
  16.0064404  27.6295831  28.5255648  15.2160479  27.4487291  28.8472984
  16.4025027  26.8522783  28.5085943  15.9481280  27.4883292  28.5708197
  20.4930295  36.4583605  13.9662362  21.2603280  36.5183730  13.5568214
  20.0461604  35.8864046  13.4818680  20.5403722  36.3820181  13.8340072
  21.3908090  35.2638261  26.2515094  20.7153092  35.0323493  26.7528481
  21.4000466  34.6559444  25.6257199  21.2926595  35.1397186  26.2331247
  18.5202234  30.1056090  33.0079147  18.4561375  30.9666046  32.8799284
  18.6599422  29.7888083  32.2074699  18.5317704  30.1856256  32.8707360
  23.3924825  38.1203393  18.4825272  23.4744662  38.9270379  18.1586723
  23.8774567  38.1399352  19.2066046  23.4761983  38.2424056  18.5412171
  17.2021328  32.7988229  27.1495350  16.7783577  32.9992728  26.4134369
  17.0266183  31.9517077  27.2619650  17.1132209  32.7037011  27.0569040
  16.7033022  44.3138742  29.6116807  17.1928952  43.6149531  29.4292472
  16.1317254  44.0162612  30.1992865  16.6917552  44.1664966  29.6717848
  12.4903773  33.2940281  22.5823323  12.6468392  33.2287083  23.4379315
  12.8304366  34.0688833  22.3702002  12.5637008  33.3989479  22.6777917
  19.0282918  32.6698164  21.4516686  19.5698463  32.1668545  21.9155306
  19.3429477  32.6163359  20.6406171  19.1547315  32.5877585  21.4000498
  17.1969367  38.0615516  18.7356714  17.2662188  37.2030054  18.8749714
  17.9757823  38.2787397  18.4075739  17.3222218  37.9668380  18.7073871
  21.5876855  40.4853217  22.9493207  21.1956647  40.1819932  22.2316073
  21.7429927  41.3222307  22.7598161  21.5530445  40.5637054  22.8149704
   9.0638035  30.4775231  22.8984090   9.4436999  30.8959776  22.2344357
   8.4893399  31.0588687  23.2052933   9.0349360  30.6253090  22.8460831
  21.7516530  37.0503206  22.8899238  21.3931185  37.2217849  23.6663270
  21.2655241  37.5116411  22.3327236  21.6275227  37.1442177  22.9224507
  19.5686916  20.6734404  26.4926329  18.6980474  20.6473125  26.4459639
  19.8227257  20.5011596  25.6752175  19.4780476  20.6444548  26.3646466
  16.5404895  32.7302371  15.4299472  16.8297420  33.5067254  15.7043046
  16.6276694  32.2191103  16.1313972  16.5959151  32.7694290  15.5741970
  19.4364783  30.5783605  37.2250996  19.9064414  31.2025722  37.6118870
  19.4826663  29.9100581  37.7844210  19.5132658  30.5718286  37.3651067
  16.5936056  22.6840633  27.9499800  16.0774545  21.9920824  28.0751379
  16.0329985  23.3511410  27.8962398  16.4342570  22.6803890  27.9605866
  18.6628290  23.2233593  29.7792652  18.2760043  23.2482624  30.5606182
  18.1761227  22.6575271  29.3267169  18.5340799  23.1429344  29.8280556
  18.3285431  20.1100578  32.0702912  18.9578549  20.6460878  31.7923982
  18.4971294  20.0177937  32.9216478  18.4463226  20.1761941  32.1551440
  18.1299346  24.8971773  34.3429324  18.9572776  24.6256922  34.3987938
  18.1507192  25.6932615  34.6993142  18.2552196  24.9751527  34.4044507
  12.7068836  32.0435636  27.5299584  11.8656843  31.9439510  27.7378478
  12.9158844  32.8131116  27.8813905  12.6133529  32.1427679  27.6126899
  10.1844403  29.6655173  25.3584335   9.7901101  29.7398185  24.5834445
   9.6284520  30.0513119  25.9092697  10.0447215  29.7336947  25.3251995
  21.8209350  22.6436467  25.0388214  22.0258943  22.5758775  25.8845211
  21.4935774  23.4495288  24.9709391  21.8024598  22.7522407  25.1547869
  16.5185501  29.9717035  26.7797182  16.2148639  29.4173023  27.3807589
  15.8164922  30.1509245  26.2925216  16.3701711  29.9161817  26.7966887
  15.5751598  27.2817555  21.3441884  15.8511332  26.5636467  20.9319451
  16.1750267  27.8802475  21.1362990  15.7044863  27.2637925  21.2522645
  14.5803852  37.1866756  31.4869280  14.4724207  37.1968818  32.3531338
  14.7899634  38.0121536  31.2974233  14.5953963  37.3107830  31.5873371
  25.0743038  23.1968231  24.5190979  24.4617351  23.6838633  24.9044711
  25.1707213  22.5211722  25.0628630  24.9980935  23.1686540  24.6569838
  19.0762119  24.9531072  19.6188479  19.5305865  25.1241633  20.3436323
  19.5502164  24.3399183  19.2186254  19.2130439  24.8881957  19.6662240
  12.5977644  34.4379398  28.9491217  12.0065577  35.0788896  28.9194232
  13.3598668  34.8617015  28.9222517  12.6225905  34.5955236  28.9406364
  12.9938267  25.5981396  29.6159235  13.4539748  25.6720325  30.3534359
  13.0394374  26.3962650  29.2659056  13.0688822  25.7275543  29.6731991
  14.6421617  26.2648091  34.1831262  14.2507182  25.6181438  34.6187040
  14.8107479  26.8559526  34.8025517  14.6092527  26.2562359  34.3393968
  22.3567160  39.8888710  26.3823242  22.1586849  40.3779524  25.6879453
  21.7354871  40.0929951  26.9607375  22.2354725  39.9905248  26.3646465
  16.4175139  31.6573606  20.7233486  17.1617184  32.0447883  20.9616436
  16.5635835  30.8131032  20.8873974  16.5485724  31.5904079  20.7827456
  18.3354714  23.4523865  25.7565347  17.4890759  23.6246673  25.6306697
  18.3325847  22.6473209  26.0931176  18.2101864  23.3584894  25.7876474
  19.4053015  27.2299080  26.6227405  18.9312969  26.7040842  27.1332716
  19.7771150  26.6828553  26.0542267  19.3902903  27.0715076  26.6142552
   9.7826045  29.2270587  31.9910951  10.6451658  29.1266296  31.9048281
   9.4517828  28.6465296  31.4296523   9.8611241  29.1262213  31.8956357
  21.3336514  28.1235634  19.6853159  20.8059533  28.2064378  18.9958868
  21.7932222  28.8653506  19.6817804  21.3238365  28.2456297  19.5827854
  13.1427831  28.0513036  28.6521369  12.5180901  28.0631427  28.0447322
  12.8073425  28.5273211  29.3012609  13.0013322  28.1231553  28.6577938
  13.3269579  26.3938154  14.7094054  12.9782384  27.0457879  15.1725604
  12.8466025  26.3795267  13.9817925  13.2039823  26.4881208  14.6705145
   9.8553506  36.1113496  30.0925133   9.3253431  35.4205935  30.1420108
  10.1278600  36.1023681  29.2637842   9.8178228  36.0080627  29.9772549
  20.8873597  36.6939198  18.8162816  21.6107796  37.1597311  18.6727389
  20.4474188  36.7612808  18.0660413  20.9289289  36.7723035  18.6847597
  19.2956049  34.6241010  27.8007804  18.8683657  33.9990729  27.3673239
  19.2880993  34.3415932  28.6266811  19.2315190  34.4893791  27.8587631
  12.4118576  29.6606183  30.8696238  12.5712063  28.9049507  31.2747960
  12.2311470  30.2097123  31.5236975  12.4083935  29.6299997  31.0258944
  20.3538879  21.8267419  31.4247027  19.8579440  22.0231093  30.7338594
  21.1107941  22.2260087  31.2535829  20.3925704  21.9145153  31.2967164
  17.6241759  25.5009765  28.0150338  17.6484246  24.9669877  27.3263118
  17.8753232  24.9927074  28.6775928  17.6651677  25.3470669  28.0114982
   5.1349348  32.7841260  27.4493482   5.0292797  32.7388104  26.5845566
   4.3849568  33.1295040  27.7307767   5.0084951  32.8282168  27.3630811
  13.9043081  24.2280583  27.3956082  13.9441452  24.7289790  28.1090789
  13.0792745  24.3190977  27.1262005  13.7882607  24.3162399  27.4606620
  16.0872694  33.7941323  35.4976377  15.2368324  33.9313037  35.6334022
  16.2500821  33.0605101  35.9424078  15.9856557  33.7055424  35.5831976
  15.3257444  30.7441093  29.6929981  14.4949374  30.9114911  29.4865229
  15.2708961  30.3677044  30.4778866  15.1946859  30.7130824  29.7778509
  13.1341227  24.2349986  35.3286392  13.7593931  23.6912119  35.6015824
  12.6791707  23.7544903  34.7594182  13.1589488  24.0839467  35.2847986
  13.6993488  29.0196684  20.2220099  13.8396449  29.5169149  20.9248740
  14.1976021  28.3182979  20.3634312  13.7934569  28.9898663  20.3471678
  13.7293710  29.8863795  17.5512676  14.3638790  30.4824220  17.4862137
  13.8119321  29.5867253  18.3658546  13.8350261  29.9304704  17.6615762
  15.3072693  25.8177771  17.5258118  15.6288534  25.3380853  16.8717380
  15.5699637  26.6277417  17.3348929  15.3938719  25.8667669  17.4013610
  18.5369666  36.8396645  31.0456934  18.0294757  37.3932492  31.4897564
  18.2396312  36.9004935  30.2275708  18.4174551  36.9302956  30.9905390
  10.2346698  32.0831636  20.8202222  10.7438928  32.6796144  21.2013527
  10.7080971  31.8157610  20.1378641  10.3790074  32.1317452  20.7756744
  21.1477446  40.7559903  18.9760877  20.4306756  40.5820765  18.5108114
  21.7984184  40.5212475  18.4436363  21.1379297  40.6955695  18.8290095
  19.1426071  21.6765065  23.2972174  18.4994389  21.5262711  23.8657312
  18.8025478  21.4307410  22.5321278  18.9971148  21.6177187  23.2675189
  17.7812151  41.7721203  27.9513941  17.5577806  41.0140033  28.3197967
  17.2921995  41.8019225  27.2294380  17.6755600  41.6643428  27.8990681
  23.8953545  26.0880375  25.6292555  24.2481155  25.6610098  26.3038354
  23.0368347  26.0031219  25.7593632  23.8202990  26.0125116  25.7487566
  12.5937230  28.7187895  23.6875402  11.8749219  29.1352027  23.9548266
  12.9649592  29.2842134  23.1367040  12.5429162  28.8637176  23.6458209
  16.4290608  41.9921662  25.4051025  16.0151007  41.3295792  25.0154867
  17.1137982  42.1399520  24.8846719  16.4688980  41.9162320  25.2707522
  19.7955902  41.1511747  26.1574642  19.3972186  41.2614017  25.3895462
  19.1807122  41.3593813  26.7401202  19.6454792  41.1985315  26.1305941
  18.3683804  27.7585895  19.0248781  17.7748644  28.0802891  18.4733348
  18.4059082  26.9126990  18.8169888  18.2858194  27.6810223  18.9131553
  25.3277605  21.2098787  26.5576868  24.8208470  20.5027926  26.4898045
  26.1245039  20.8791976  26.6877945  25.3704844  21.0571938  26.5675863
  21.2441621  27.7165399  22.4550532  21.0155314  27.7398101  21.6128890
  21.5039697  26.8922866  22.5745542  21.2487809  27.5981479  22.3475729
  15.5260849  29.5699872  32.0575632  15.0139752  28.9621055  32.4160663
  15.3540346  30.2856465  32.5249608  15.4250486  29.5863171  32.1791856
  10.3726564  28.0137447  34.7077994  10.2029154  28.6738822  34.1626200
   9.9292514  28.2244009  35.4290483  10.2825898  28.1423430  34.7339623
  14.2986383  26.2541945  23.7504727  14.7743750  26.6159025  23.1154908
  13.7974983  26.9098413  24.0304870  14.2951742  26.4036134  23.6981468
  27.5297745  35.7263714  19.5417732  27.9131351  36.4755070  19.7715829
  26.7341858  35.9729533  19.2829721  27.4691527  35.8733407  19.5375306
  19.4029920  27.4924117  34.4977887  19.9601350  27.2637926  33.8656353
  19.0790985  28.2529782  34.2213100  19.4376330  27.5707954  34.3634385
   7.2728629  30.9184313  29.9666484   6.7255348  30.2484959  30.0847352
   8.0621007  30.5514161  30.0309951   7.3080812  30.7649299  29.9935184
  17.1213037  30.5791770  35.4629895  17.8724364  30.8943447  35.7769449
  17.3135614  30.3770941  34.6363816  17.2604451  30.5959152  35.3873290
  16.3413037  28.3983145  17.1178111  16.7212001  28.4162774  16.3329226
  15.6005633  28.8437134  16.9968959  16.2881874  28.4664920  16.9841680
  23.9698327  26.7065336  22.7053690  23.9692554  26.5513993  23.5637966
  23.7654507  27.5528323  22.6495076  23.9398105  26.8085957  22.8241629
   6.0315598  30.1305121  27.1212507   5.8537359  29.6781730  27.8467422
   5.7434620  30.9331282  27.3050984   5.9628551  30.1827679  27.2556009
  17.1397791  35.2360651  18.5086901  16.3309113  34.9127325  18.4620211
  17.6472700  34.5293874  18.4415150  17.0947458  35.0841968  18.4917196
   7.7688068  32.6632845  24.2334266   6.9033587  32.6518535  24.1217037
   7.8686884  32.4763067  25.0805405   7.6562235  32.6338906  24.3423210
  13.3945078  42.4330743  27.8064371  13.7091637  43.2467132  27.8142153
  13.8038491  42.0480962  28.4746530  13.5013176  42.4959446  27.9068463
  20.3469598  37.8500790  25.3768183  20.8180776  38.5641053  25.5458168
  20.6829776  37.2499540  25.9128053  20.4664713  37.8672254  25.4800559
  17.2639092  22.6228261  32.3326278  17.3966998  21.8259254  32.6607253
  17.6484245  23.1494664  32.9124554  17.3395421  22.5828177  32.4669781
  20.3371448  19.5458587  28.9307371  19.5317411  19.4356316  29.2475209
  20.2078183  19.6471042  28.0737237  20.1991581  19.5442257  28.8515412
  16.3332207  24.6244673  19.8005743  17.1547902  24.7942986  19.5587438
  15.8701858  24.7791934  19.0772040  16.3863370  24.6726406  19.6577387
  14.9227539  22.6187436  30.5804172  15.4671952  22.2778562  31.1708513
  14.9764475  23.4772897  30.7225456  15.0116659  22.6942695  30.6886045
  10.7358098  36.3803852  27.4542980  11.3402955  36.3399686  26.8256800
  10.5285411  37.2275004  27.4847035  10.7946995  36.4991854  27.3659096
   5.9709380  35.3638469  27.3241903   5.8733658  34.5534741  27.6331959
   6.7538250  35.3430263  26.9388171   6.0725517  35.2405559  27.3128766
  37.0215521  46.3034648  21.6348093  36.9909525  47.1579285  21.8066363
  37.6196869  46.0029941  22.1934237  37.1052678  46.3851145  21.7422896
  30.2215205  45.3910300  26.3901024  29.3653101  45.5518798  26.4410141
  30.2682859  44.5202363  26.4106085  30.1014317  45.2861101  26.4007090
  24.6056345  54.9273017  22.1538255  23.8539245  54.5488556  21.9254300
  25.0542357  54.9591451  21.4057066  24.5606012  54.8758625  22.0095757
  30.0581305  55.3498387  17.5823802  29.7232673  56.0275309  17.1468025
  30.5708175  54.9603698  16.9940674  30.0846886  55.3922965  17.4310594
  29.5985596  57.3012656  23.5234914  29.9824976  57.8699554  22.9839689
  29.5344737  56.5762166  23.0440730  29.6459023  57.2788119  23.3728777
  33.0667026  47.4502343  29.0332675  33.6122986  48.1287430  29.0926645
  33.0083903  47.3089804  28.1734257  33.1382941  47.5294345  28.9144736
  26.1841101  54.9391410  24.4201028  26.2851464  54.1291764  24.7298156
  25.5882847  54.8448356  23.7900706  26.1113640  54.8056438  24.3727266
  34.8432095  48.8786951  19.9066403  34.7271621  49.6294637  20.3358541
  35.6387982  48.6210904  20.1562490  34.9436685  48.9521797  20.0070495
  26.0241841  59.8568999  25.8215884  26.6679296  60.2982163  26.2112042
  26.3498096  59.0522425  25.7346143  26.1673670  59.8034193  25.8661361
  19.3806146  50.9611696  24.0453361  19.1456330  50.1279349  23.9385630
  19.5191786  51.2416362  23.2314562  19.3661808  50.8795200  23.9095716
  21.6796233  43.1297427  26.9437669  21.0601265  42.5390074  26.7747684
  21.5780097  43.7208862  26.3101992  21.5733909  43.1301509  26.8242659
  26.7262421  52.8680974  21.1935746  27.0478262  53.4086181  20.5897054
  27.3734517  52.2977745  21.3258035  26.8688476  52.8640149  21.1242781
  28.7764129  44.8696969  21.2770132  29.4744293  45.0485096  21.7691596
  29.0916461  44.3467308  20.6540522  28.9259466  44.8190741  21.2572142
  21.4065366  46.6749708  29.1881238  21.2824063  47.2612154  29.8231057
  22.0583651  46.1809904  29.4893513  21.4839015  46.6888513  29.3267167
  28.9652064  51.2567414  21.2649924  29.4045700  50.6484514  21.7104697
  28.8156727  50.8774787  20.4935389  29.0073530  51.1105885  21.2169091
  26.4323707  49.8511425  28.4668749  27.0772710  49.3583869  28.1479698
  26.6725484  49.9936212  29.2934828  26.5634292  49.7988868  28.5418282
  28.9709798  52.6966331  28.1175642  29.2533041  51.9017737  27.8962398
  29.6995959  53.1746919  28.1380703  29.1199362  52.6500928  28.0878657
  26.9490992  40.2389365  25.3591407  26.6194322  40.6900509  24.6895106
  26.2735994  40.1605529  25.9064413  26.8001429  40.2940500  25.3414630
  32.5661401  49.6094595  18.2180693  32.4812696  50.4655561  18.3630262
  33.0545784  49.3338919  18.8862852  32.6250298  49.6951916  18.3382774
  33.4979834  46.2279389  19.7178428  32.9691305  46.4439023  20.3775734
  34.0204854  46.9215527  19.6379397  33.4968287  46.3622526  19.8034027
  25.3879442  50.1242606  18.5185896  24.8036657  50.6292637  18.9251760
  24.9849537  49.8984993  17.7782488  25.2418745  50.1650854  18.4690921
  20.9423470  55.8397367  25.3209568  20.4591048  56.5647857  25.2969151
  21.7546788  56.1373497  25.4319725  20.9914218  55.9899721  25.3336847
  27.0137624  54.6329548  27.9259382  26.4964566  54.2736963  27.3220690
  27.7112016  54.1091722  27.9365448  27.0403205  54.5027236  27.8389641
  29.8456656  46.3708258  16.9954817  30.0852660  46.5786242  16.1830160
  30.1672497  45.5665767  17.1043761  29.9293814  46.2822359  16.8915370
  25.1546946  38.3001654  20.8414355  25.9092914  38.6679971  20.6031405
  24.9774481  38.6741208  21.6093534  25.2401425  38.4099841  20.9199243
  23.7967668  56.3553543  25.4729847  24.4988247  55.8405532  25.5302604
  23.7165151  56.6827694  26.2776723  23.8891428  56.3267769  25.6002640
  23.5104011  40.7071973  17.5392468  23.3279584  40.9243853  16.7133460
  24.3729624  40.8210985  17.5951082  23.6108600  40.7561871  17.4246955
  23.1218443  52.5459895  24.9815455  23.9607342  52.7782828  25.0289217
  23.1530212  51.6764206  24.9122491  23.2500161  52.4516841  24.9780100
  23.7471146  52.9660770  29.2828761  24.2869371  52.8231901  29.9532133
  23.0641092  53.3657521  29.6512787  23.7263300  53.0040441  29.4363183
  29.1903730  37.7098383  20.5741491  29.9189891  37.5314338  20.1279648
  29.2798623  38.5516463  20.7848670  29.3110392  37.8082262  20.5395009
  19.1508291  49.1861061  29.4363183  18.8846706  48.3700177  29.5954173
  19.1646855  49.2314216  28.5658698  19.1133013  49.0717966  29.3316665
  23.0566038  43.9846145  16.0514941  22.3424215  43.6984325  16.4637373
  23.5410007  44.3242771  16.6921328  23.0225401  43.9927795  16.2070576
  30.2313356  52.4876099  16.4276749  30.6464504  52.1561123  15.7361245
  29.4005286  52.2545001  16.2996886  30.1701365  52.4047355  16.3067596
  19.5601705  49.9719840  26.7174927  19.3777278  49.9466726  25.8647219
  20.2951374  50.4418778  26.7563836  19.6415769  50.0381202  26.5972845
  22.6247456  46.6904843  33.2257035  23.3487429  46.6757874  33.7121930
  22.7263593  47.4000198  32.7279004  22.7465665  46.7929546  33.2235822
  32.6723725  46.8937919  22.3800998  32.7670579  47.6327213  22.8340624
  32.0482568  46.4655394  22.8135563  32.5932755  46.9399239  22.5109146
  19.5272615  46.8513341  26.8673993  20.1046118  46.7149792  27.5066239
  18.8286677  46.3949125  27.1219578  19.5093636  46.7635607  26.9996283
  32.9246746  48.7386659  15.6137950  32.8426909  48.8088846  16.4792937
  33.5626466  49.3016403  15.4221691  33.0066583  48.8325630  15.7127900
  26.2839917  48.5047397  25.0812477  26.0259161  47.6719131  25.0543776
  26.3388400  48.7305010  24.2404977  26.2539695  48.4145168  24.9532613
  31.3640967  40.6075847  25.1816569  30.6597294  40.1185033  25.3400488
  31.4125942  40.6198322  24.3105014  31.2671019  40.5365495  25.0755909
  25.2574629  46.0585159  25.5677371  24.6824221  46.2177327  26.2041332
  24.8810306  45.4220568  25.1045822  25.1177442  45.9882972  25.5931930
  28.9247918  44.5308508  30.4269750  28.5362351  44.1062726  29.7721941
  28.2602616  44.7790658  30.9346776  28.7694846  44.5047229  30.4057618
  38.5671187  44.2883513  23.2017580  38.3107752  43.4763454  23.0115463
  39.4100501  44.2961080  22.9747767  38.6537213  44.1695510  23.1402397
  15.0031448  45.7025234  23.5821812  15.0891700  45.3257102  24.3635342
  15.6307246  45.3285679  23.1041770  15.1087999  45.5910716  23.6267289
  32.7474280  38.2283137  27.9393734  33.1284791  37.5461308  28.3261608
  31.9437564  37.9392739  27.7569398  32.6850741  38.0850186  27.9697790
  30.0286856  48.7607113  18.6246557  30.8427495  49.0522006  18.5129328
  29.9645997  48.1066975  18.0504850  30.1389595  48.7072308  18.5235394
  25.8994764  52.2328630  23.7518869  26.5368711  51.9940378  24.2970662
  26.3249836  52.4365789  23.0172029  26.0570931  52.2279641  23.7236026
  20.5907407  54.4716967  27.6353173  20.6311552  54.7431818  26.8072952
  21.1501931  54.9958875  28.0510961  20.6790753  54.5892722  27.5745061
  26.5397579  47.4530920  18.0893758  26.9242732  47.2338627  18.8410303
  26.2909200  48.2793866  18.2194835  26.5599652  47.5429066  18.2194835
  28.2816236  52.7101053  25.4312655  28.3555245  52.5476225  26.2854505
  29.0985743  52.8991243  25.1873137  28.4132595  52.7137795  25.5210681
  22.0421993  53.0558916  22.4607099  21.2160111  53.3020653  22.3341377
  22.1033984  52.9770997  23.3269157  21.9296160  53.0803865  22.5696043
  24.2598017  39.1227857  23.4202539  23.3920442  39.1950456  23.4860148
  24.5473221  39.9249936  23.6090514  24.1737765  39.2522004  23.4577305
  26.8220822  55.6735796  20.1626128  27.1119121  55.2824777  19.4385355
  27.5524303  55.8552501  20.6031404  26.9727706  55.6429610  20.1208936
  24.7626738  57.6503178  23.2286278  24.5427033  57.3600533  24.0212945
  24.5421260  56.9918133  22.7004191  24.6974332  57.5102887  23.2675187
  23.6743685  49.7376495  25.4941980  23.3856934  49.1113966  26.0287707
  24.5427033  49.6796782  25.5606660  23.7603937  49.6364039  25.5832934
  26.9294693  59.0232568  22.0116971  27.5818751  58.4909011  22.2407997
  26.2320302  58.6701221  22.3984845  26.9225411  58.8922091  22.1029138
  23.8775958  51.3771746  21.4184345  24.6321926  51.7584785  21.6319807
  23.2846571  51.8282890  21.8731041  23.9012672  51.5000573  21.5167223
  34.9234612  51.3436982  21.3547950  35.4892644  52.0030192  21.2706493
  34.2762515  51.6886681  21.8264352  34.9113368  51.4918924  21.4120706
  25.1974185  52.5480307  26.7924460  24.6754938  52.6880599  27.4776325
  25.5848205  51.7890972  26.9826578  25.1777886  52.4565831  26.9225537
  22.1865369  42.5986116  20.8619415  21.8990165  42.2287387  20.1251362
  22.8735837  43.0680971  20.6003120  22.2454266  42.6133085  20.7134491
  31.3941190  54.2875767  20.7785029  31.1527866  53.5543627  20.3712094
  31.5742523  54.8362624  20.1251362  31.3848814  54.2598158  20.6215252
  26.6240511  49.5784326  22.1905951  26.4283293  50.1859061  21.5966254
  26.8474856  48.8852270  21.7097625  26.6275152  49.5661852  22.0322032
  25.0219041  46.4639064  22.3086820  25.7441692  46.6280222  21.8490626
  24.5427033  47.1848729  22.2026159  25.0582771  46.5937294  22.2252434
  32.9812548  42.8002863  27.6883505  32.1423649  42.8264142  27.4521768
  33.0516915  43.4473599  28.2688851  32.8680942  42.8998989  27.7392622
  22.6726657  48.8697137  31.4140960  23.1847754  49.1481390  30.7649719
  22.3863000  49.6086431  31.7803773  22.7061520  49.0199490  31.3730838
  31.4281826  39.6988240  22.4211121  32.1308179  39.4995988  21.9431079
  31.1626015  38.9264182  22.7279964  31.4928459  39.5551206  22.3956562
  19.7593564  43.3767329  21.7104696  19.8609700  44.1793490  22.0385672
  20.5549450  43.1754664  21.4127777  19.8921469  43.4653227  21.7140051
  30.7295888  45.3281597  23.5970306  30.4830602  45.2477348  24.4307095
  31.0581011  44.5435065  23.4032833  30.7417132  45.2007862  23.6917829
  34.6243937  52.0364956  27.3857087  34.4858296  52.7346002  27.8905830
  33.8443935  51.8813613  27.0293269  34.4887164  52.1165123  27.4083361
  25.7620670  56.2541087  29.8754316  25.9110234  55.6944003  29.2227720
  26.5420672  56.3333089  30.2586835  25.8994764  56.1826653  29.8351265
  36.1197310  51.3943210  18.1473586  35.7404118  50.6080348  18.1402876
  35.4563555  51.9430067  18.0045231  35.9655784  51.3588034  18.1254383
  28.2873971  56.4255730  31.1538807  28.2117642  55.7564541  31.7089595
  28.2163830  57.1273518  31.6679473  28.2654578  56.4300638  31.3115655
  28.9444218  54.9456729  21.9862413  29.7094109  54.6766373  21.6645077
  28.8422308  54.4606739  22.7032475  29.0425713  54.8346294  22.0442240
  26.9796988  43.1481139  28.5255648  26.1893062  42.9672599  28.8472984
  27.3757610  42.3708091  28.5085943  26.9213864  43.0068600  28.5708197
  31.4662878  51.9768913  13.9662362  32.2335863  52.0369038  13.5568214
  31.0194187  51.4049354  13.4818680  31.5136306  51.9005489  13.8340072
  32.3640674  50.7823569  26.2515094  31.6885676  50.5508801  26.7528481
  32.3733050  50.1744752  25.6257199  32.2659178  50.6582494  26.2331247
  34.3657408  53.6388701  18.4825272  34.4477246  54.4455687  18.1586723
  34.8507151  53.6584660  19.2066046  34.4494566  53.7609364  18.5412171
  28.1753912  48.3173537  27.1495350  27.7516161  48.5178036  26.4134369
  27.9998767  47.4702385  27.2619650  28.0864792  48.2222319  27.0569040
  27.6765605  59.8324050  29.6116807  28.1661536  59.1334839  29.4292472
  27.1049837  59.5347920  30.1992865  27.6650135  59.6850274  29.6717848
  23.4636357  48.8125588  22.5823323  23.6200976  48.7472391  23.4379315
  23.8036950  49.5874141  22.3702002  23.5369592  48.9174787  22.6777917
  30.0015501  48.1883472  21.4516686  30.5431047  47.6853853  21.9155306
  30.3162060  48.1348667  20.6406171  30.1279898  48.1062893  21.4000498
  28.1701951  53.5800824  18.7356714  28.2394771  52.7215362  18.8749714
  28.9490406  53.7972704  18.4075739  28.2954801  53.4853688  18.7073871
  32.5609439  56.0038525  22.9493207  32.1689230  55.7005240  22.2316073
  32.7162511  56.8407615  22.7598161  32.5263028  56.0822362  22.8149704
  20.0370618  45.9960539  22.8984090  20.4169583  46.4145084  22.2344357
  19.4625983  46.5773995  23.2052933  20.0081943  46.1438398  22.8460831
  32.7249113  52.5688514  22.8899238  32.3663768  52.7403157  23.6663270
  32.2387824  53.0301719  22.3327236  32.6007810  52.6627485  22.9224507
  27.5137479  48.2487679  15.4299472  27.8030004  49.0252562  15.7043046
  27.6009278  47.7376411  16.1313972  27.5691735  48.2879597  15.5741970
  23.6801420  47.5620944  27.5299584  22.8389426  47.4624818  27.7378478
  23.8891428  48.3316424  27.8813905  23.5866112  47.6612987  27.6126899
  21.1576987  45.1840481  25.3584335  20.7633684  45.2583492  24.5834445
  20.6017104  45.5698427  25.9092697  21.0179799  45.2522255  25.3251995
  27.4918085  45.4902343  26.7797182  27.1881222  44.9358331  27.3807589
  26.7897505  45.6694553  26.2925216  27.3434294  45.4347125  26.7966887
  26.5484182  42.8002863  21.3441884  26.8243916  42.0821775  20.9319451
  27.1482851  43.3987783  21.1362990  26.6777446  42.7823233  21.2522645
  25.5536436  52.7052064  31.4869280  25.4456791  52.7154126  32.3531338
  25.7632217  53.5306844  31.2974233  25.5686547  52.8293138  31.5873371
  36.0475621  38.7153539  24.5190979  35.4349935  39.2023941  24.9044711
  36.1439796  38.0397030  25.0628630  35.9713519  38.6871848  24.6569838
  30.0494702  40.4716380  19.6188479  30.5038449  40.6426940  20.3436323
  30.5234748  39.8584491  19.2186254  30.1863022  40.4067265  19.6662240
  23.5710228  49.9564706  28.9491217  22.9798161  50.5974204  28.9194232
  24.3331251  50.3802323  28.9222517  23.5958488  50.1140544  28.9406364
  27.3907722  47.1758914  20.7233486  28.1349767  47.5633191  20.9616436
  27.5368418  46.3316340  20.8873974  27.5218307  47.1089387  20.7827456
  30.3785598  42.7484388  26.6227405  29.9045552  42.2226150  27.1332716
  30.7503734  42.2013861  26.0542267  30.3635487  42.5900384  26.6142552
  32.3069098  43.6420942  19.6853159  31.7792116  43.7249686  18.9958868
  32.7664806  44.3838814  19.6817804  32.2970948  43.7641605  19.5827854
  24.1160414  43.5698343  28.6521369  23.4913484  43.5816735  28.0447322
  23.7806009  44.0458519  29.3012609  23.9745906  43.6416860  28.6577938
  24.3002163  41.9123462  14.7094054  23.9514967  42.5643187  15.1725604
  23.8198609  41.8980575  13.9817925  24.1772407  42.0066515  14.6705145
  20.8286090  51.6298804  30.0925133  20.2986014  50.9391242  30.1420108
  21.1011183  51.6208989  29.2637842  20.7910812  51.5265935  29.9772549
  31.8606180  52.2124506  18.8162816  32.5840379  52.6782619  18.6727389
  31.4206771  52.2798116  18.0660413  31.9021872  52.2908343  18.6847597
  31.0292335  49.0722048  30.0663505  30.4149328  48.5280098  30.3612140
  31.5459620  48.5586285  29.5869321  31.0147998  48.9158457  30.0387733
  30.2688632  50.1426318  27.8007804  29.8416241  49.5176037  27.3673239
  30.2613577  49.8601240  28.6266811  30.2047774  50.0079099  27.8587631
  23.3851160  45.1791491  30.8696238  23.5444646  44.4234815  31.2747960
  23.2044053  45.7282431  31.5236975  23.3816519  45.1485305  31.0258944
  28.5974342  41.0195073  28.0150338  28.6216829  40.4855185  27.3263118
  28.8485816  40.5112382  28.6775928  28.6384261  40.8655977  28.0114982
  16.1081932  48.3026568  27.4493482  16.0025381  48.2573412  26.5845566
  15.3582152  48.6480348  27.7307767  15.9817535  48.3467476  27.3630811
  24.8775664  39.7465891  27.3956082  24.9174036  40.2475098  28.1090789
  24.0525329  39.8376285  27.1262005  24.7615190  39.8347707  27.4606620
  26.2990028  46.2626401  29.6929981  25.4681957  46.4300219  29.4865229
  26.2441545  45.8862352  30.4778866  26.1679443  46.2316132  29.7778509
  24.6726072  44.5381992  20.2220099  24.8129033  45.0354457  20.9248740
  25.1708604  43.8368287  20.3634312  24.7667153  44.5083971  20.3471678
  24.7026294  45.4049103  17.5512676  25.3371373  46.0009528  17.4862137
  24.7851905  45.1052561  18.3658546  24.8082845  45.4490012  17.6615762
  26.2805277  41.3363079  17.5258118  26.6021118  40.8566161  16.8717380
  26.5432221  42.1462725  17.3348929  26.3671302  41.3852977  17.4013610
  21.2079282  47.6016944  20.8202222  21.7171511  48.1981452  21.2013527
  21.6813554  47.3342918  20.1378641  21.3522658  47.6502760  20.7756744
  32.1210030  56.2745211  18.9760877  31.4039340  56.1006073  18.5108114
  32.7716768  56.0397783  18.4436363  32.1111880  56.2141003  18.8290095
  34.7058001  45.1509799  22.7202182  34.0349191  45.6939502  22.5915248
  35.3997751  45.6204655  22.4783877  34.7086869  45.3008071  22.6657710
  28.7544735  57.2906511  27.9513941  28.5310389  56.5325341  28.3197967
  28.2654578  57.3204533  27.2294380  28.6488184  57.1828736  27.8990681
  34.8686129  41.6065683  25.6292555  35.2213739  41.1795406  26.3038354
  34.0100930  41.5216527  25.7593632  34.7935573  41.5310424  25.7487566
  23.5669814  44.2373203  23.6875402  22.8481803  44.6537335  23.9548266
  23.9382176  44.8027441  23.1367040  23.5161745  44.3822484  23.6458209
  27.4023192  57.5106969  25.4051025  26.9883590  56.8481100  25.0154867
  28.0870566  57.6584828  24.8846719  27.4421564  57.4347628  25.2707522
  30.7688486  56.6697055  26.1574642  30.3704769  56.7799325  25.3895462
  30.1539706  56.8779121  26.7401202  30.6187375  56.7170623  26.1305941
  29.3416388  43.2771203  19.0248781  28.7481227  43.5988199  18.4733348
  29.3791666  42.4312298  18.8169888  29.2590777  43.1995531  18.9131553
  32.2174205  43.2350707  22.4550532  31.9887898  43.2583409  21.6128890
  32.4772281  42.4108174  22.5745542  32.2220393  43.1166787  22.3475729
  25.2718967  41.7727253  23.7504727  25.7476333  42.1344333  23.1154908
  24.7707567  42.4283721  24.0304870  25.2684326  41.9221442  23.6981468
  18.2461212  46.4369621  29.9666484  17.6987932  45.7670267  30.0847352
  19.0353590  46.0699469  30.0309951  18.2813396  46.2834607  29.9935184
  27.3145620  43.9168453  17.1178111  27.6944585  43.9348082  16.3329226
  26.5738216  44.3622442  16.9968959  27.2614458  43.9850228  16.9841680
  34.9430911  42.2250644  22.7053690  34.9425137  42.0699301  23.5637966
  34.7387091  43.0713631  22.6495076  34.9130689  42.3271265  22.8241629
  17.0048182  45.6490429  27.1212507  16.8269943  45.1967038  27.8467422
  16.7167204  46.4516590  27.3050984  16.9361135  45.7012987  27.2556009
  28.1130374  50.7545959  18.5086901  27.3041697  50.4312633  18.4620211
  28.6205283  50.0479181  18.4415150  28.0680041  50.6027276  18.4917196
  18.7420652  48.1818153  24.2334266  17.8766171  48.1703843  24.1217037
  18.8419467  47.9948375  25.0805405  18.6294819  48.1524214  24.3423210
  24.3677661  57.9516051  27.8064371  24.6824220  58.7652440  27.8142153
  24.7771075  57.5666270  28.4746530  24.4745759  58.0144754  27.9068463
  31.3202181  53.3686098  25.3768183  31.7913359  54.0826361  25.5458168
  31.6562360  52.7684848  25.9128053  31.4397296  53.3857562  25.4800559
  27.3064791  40.1429981  19.8005743  28.1280485  40.3128294  19.5587438
  26.8434442  40.2977242  19.0772040  27.3595953  40.1911714  19.6577387
  21.7090682  51.8989160  27.4542980  22.3135539  51.8584994  26.8256800
  21.5017994  52.7460312  27.4847035  21.7679579  52.0177162  27.3659096
  16.9441964  50.8823777  27.3241903  16.8466242  50.0720049  27.6331959
  17.7270834  50.8615570  26.9388171  17.0458100  50.7590867  27.3128766
  35.5788929  70.4458325  22.1538255  34.8271828  70.0673864  21.9254300
  36.0274940  70.4776759  21.4057066  35.5338595  70.3943932  22.0095757
  44.5041505  67.1782133  35.9961480  45.2108273  66.6834164  36.1248414
  44.6929441  67.6191215  35.2664138  44.6369411  67.1700483  35.9070525
  41.0313889  70.8683695  17.5823802  40.6965257  71.5460616  17.1468025
  41.5440759  70.4789006  16.9940674  41.0579470  70.9108273  17.4310594
  40.5718180  72.8197964  23.5234914  40.9557559  73.3884862  22.9839689
  40.5077321  72.0947474  23.0440730  40.6191607  72.7973427  23.3728777
  44.0399610  62.9687651  29.0332675  44.5855570  63.6472738  29.0926645
  43.9816486  62.8275112  28.1734257  44.1115524  63.0479653  28.9144736
  37.1573685  70.4576717  24.4201028  37.2584048  69.6477071  24.7298156
  36.5615430  70.3633664  23.7900706  37.0846223  70.3241746  24.3727266
  45.8164679  64.3972258  19.9066403  45.7004205  65.1479945  20.3358541
  46.6120565  64.1396212  20.1562490  45.9169268  64.4707105  20.0070495
  36.9974424  75.3754307  25.8215884  37.6411880  75.8167471  26.2112042
  37.3230680  74.5707733  25.7346143  37.1406253  75.3219501  25.8661361
  30.3538729  66.4797004  24.0453361  30.1188914  65.6464656  23.9385630
  30.4924370  66.7601670  23.2314562  30.3394392  66.3980507  23.9095716
  37.6995004  68.3866282  21.1935746  38.0210845  68.9271489  20.5897054
  38.3467101  67.8163053  21.3258035  37.8421059  68.3825457  21.1242781
  39.7496712  60.3882276  21.2770132  40.4476877  60.5670404  21.7691596
  40.0649045  59.8652616  20.6540522  39.8992049  60.3376049  21.2572142
  39.9384648  66.7752721  21.2649924  40.3778283  66.1669822  21.7104697
  39.7889310  66.3960095  20.4935389  39.9806113  66.6291193  21.2169091
  39.9442382  68.2151639  28.1175642  40.2265625  67.4203045  27.8962398
  40.6728542  68.6932227  28.1380703  40.0931946  68.1686236  28.0878657
  43.5393984  65.1279903  18.2180693  43.4545279  65.9840869  18.3630262
  44.0278367  64.8524227  18.8862852  43.5982881  65.2137224  18.3382774
  44.4712417  61.7464697  19.7178428  43.9423889  61.9624330  20.3775734
  44.9937437  62.4400835  19.6379397  44.4700870  61.8807834  19.8034027
  49.9260470  67.3211001  25.0911473  49.0958173  67.5321645  25.2544889
  49.8769723  66.4948056  24.8153756  49.7967206  67.2300608  25.0748838
  36.3612025  65.6427914  18.5185896  35.7769240  66.1477945  18.9251760
  35.9582120  65.4170301  17.7782488  36.2151329  65.6836162  18.4690921
  31.9156054  71.3582675  25.3209568  31.4323632  72.0833164  25.2969151
  32.7279372  71.6558805  25.4319725  31.9646802  71.5085029  25.3336847
  37.9870208  70.1514856  27.9259382  37.4697149  69.7922271  27.3220690
  38.6844599  69.6277030  27.9365448  38.0135789  70.0212543  27.8389641
  41.6433800  70.6009670  33.8875555  41.7317146  70.4135810  34.7353765
  42.0723512  69.9547099  33.4880402  41.7195902  70.4772677  33.9547307
  39.2104260  69.8840830  32.8693217  38.6475094  69.4713439  33.3932879
  39.9725283  69.8093735  33.2886361  39.2398708  69.8118230  33.0086218
  40.8189240  61.8893566  16.9954817  41.0585243  62.0971550  16.1830160
  41.1405081  61.0851074  17.1043761  40.9026397  61.8007667  16.8915370
  36.1279530  53.8186962  20.8414355  36.8825498  54.1865279  20.6031405
  35.9507064  54.1926516  21.6093534  36.2134008  53.9285149  20.9199243
  34.7700251  71.8738851  25.4729847  35.4720830  71.3590840  25.5302604
  34.6897734  72.2013002  26.2776723  34.8624012  71.8453077  25.6002640
  34.4836595  56.2257280  17.5392468  34.3012168  56.4429161  16.7133460
  35.3462208  56.3396293  17.5951082  34.5841184  56.2747178  17.4246955
  34.0951026  68.0645203  24.9815455  34.9339926  68.2968136  25.0289217
  34.1262796  67.1949514  24.9122491  34.2232744  67.9702149  24.9780100
  34.7203729  68.4846078  29.2828761  35.2601954  68.3417209  29.9532133
  34.0373676  68.8842829  29.6512787  34.6995883  68.5225749  29.4363183
  44.1444614  64.1637079  24.4773785  44.9002129  64.5968593  24.5162694
  44.2506939  63.5141848  25.0508421  44.2714785  64.1314562  24.5671811
  47.1824785  67.9910356  25.2276188  46.7460017  67.9947098  25.9835160
  46.8487701  68.6715855  24.7955766  47.0687405  68.0922812  25.2757021
  41.7553859  70.0318689  36.5519339  42.5394276  70.1449536  36.9175081
  41.5550454  69.2059826  36.7478025  41.8419885  69.9265408  36.6353725
  34.0298622  59.5031453  16.0514941  33.3156799  59.2169633  16.4637373
  34.5142590  59.8428079  16.6921328  33.9957985  59.5113103  16.2070576
  41.9124252  71.9428791  30.1985794  41.1139498  71.7028291  30.4559663
  42.3610264  71.9943184  30.9452842  41.8598864  71.9151182  30.3470719
  41.2045939  68.0061407  16.4276749  41.6197088  67.6746431  15.7361245
  40.3737869  67.7730309  16.2996886  41.1433948  67.9232663  16.3067596
  30.5334288  65.4905148  26.7174927  30.3509861  65.4652034  25.8647219
  31.2683957  65.9604086  26.7563836  30.6148352  65.5566510  26.5972845
  46.6033962  65.7256658  23.8607814  46.8389552  65.8701857  23.0334665
  46.7523526  66.4899066  24.2539328  46.6599766  65.8595712  23.7971418
  48.4324419  64.5658324  21.6977418  48.7632636  65.0985964  21.0917513
  49.0057507  64.6197212  22.3539369  48.5658098  64.6527893  21.7055200
  40.9724989  65.6889236  38.0905982  40.1797970  66.0032747  38.2758602
  41.0873916  65.9040704  37.2526767  40.8720400  65.7673072  37.9944317
  43.6456308  62.4123227  22.3800998  43.7403163  63.1512521  22.8340624
  43.0215152  61.9840702  22.8135563  43.5665338  62.4584547  22.5109146
  41.9008782  65.5909439  33.0291279  42.4747644  64.9536684  33.1839843
  41.8223586  65.5913522  32.1600937  41.9742017  65.4974551  32.9237690
  43.8979330  64.2571967  15.6137950  43.8159492  64.3274154  16.4792937
  44.5359050  64.8201710  15.4221691  43.9799167  64.3510938  15.7127900
  37.2572501  64.0232704  25.0812477  36.9991745  63.1904439  25.0543776
  37.3120984  64.2490317  24.2404977  37.2272279  63.9330476  24.9532613
  36.2307213  61.5770467  25.5677371  35.6556804  61.7362635  26.2041332
  35.8542889  60.9405876  25.1045822  36.0910025  61.5068280  25.5931930
  25.9764032  61.2210542  23.5821812  26.0624284  60.8442410  24.3635342
  26.6039829  60.8470987  23.1041770  26.0820583  61.1096024  23.6267289
  41.0019440  64.2792421  18.6246557  41.8160079  64.5707314  18.5129328
  40.9378581  63.6252283  18.0504850  41.1122179  64.2257616  18.5235394
  47.2228930  66.9618417  33.0376132  46.9867567  66.1306482  32.9188193
  47.8672159  66.9104024  33.6230977  47.2823601  66.8316105  33.1062026
  36.8727348  67.7513938  23.7518869  37.5101295  67.5125686  24.2970662
  37.2982420  67.9551097  23.0172029  37.0303514  67.7464948  23.7236026
  31.5639990  69.9902275  27.6353173  31.6044136  70.2617126  26.8072952
  32.1234515  70.5144183  28.0510961  31.6523336  70.1078030  27.5745061
  37.5130163  62.9716228  18.0893758  37.8975316  62.7523935  18.8410303
  37.2641783  63.7979173  18.2194835  37.5332236  63.0614374  18.2194835
  39.2548820  68.2286361  25.4312655  39.3287828  68.0661533  26.2854505
  40.0718326  68.4176550  25.1873137  39.3865179  68.2323103  25.5210681
  33.0154577  68.5744224  22.4607099  32.1892694  68.8205961  22.3341377
  33.0766568  68.4956305  23.3269157  32.9028744  68.5989173  22.5696043
  37.7953406  71.1921104  20.1626128  38.0851704  70.8010085  19.4385355
  38.5256887  71.3737809  20.6031404  37.9460290  71.1614918  20.1208936
  38.3848151  65.9938850  31.2479259  37.8859845  66.7054618  31.3264147
  39.1948375  66.3139516  31.2097421  38.4304258  66.1465698  31.2535828
  35.7359321  73.1688486  23.2286278  35.5159617  72.8785841  24.0212945
  35.5153843  72.5103441  22.7004191  35.6706915  73.0288195  23.2675187
  34.6476269  65.2561803  25.4941980  34.3589517  64.6299274  26.0287707
  35.5159617  65.1982090  25.5606660  34.7336520  65.1549347  25.5832934
  37.9027277  74.5417876  22.0116971  38.5551335  74.0094319  22.2407997
  37.2052886  74.1886529  22.3984845  37.8957995  74.4107399  22.1029138
  34.8508542  66.8957054  21.4184345  35.6054510  67.2770093  21.6319807
  34.2579155  67.3468198  21.8731041  34.8745255  67.0185881  21.5167223
  45.8967195  66.8622290  21.3547950  46.4625228  67.5215500  21.2706493
  45.2495099  67.2071988  21.8264352  45.8845952  67.0104232  21.4120706
  36.1706768  68.0665615  26.7924460  35.6487522  68.2065907  27.4776325
  36.5580789  67.3076280  26.9826578  36.1510469  67.9751139  26.9225537
  33.1597953  58.1171424  20.8619415  32.8722748  57.7472694  20.1251362
  33.8468421  58.5866279  20.6003120  33.2186850  58.1318393  20.7134491
  42.3673773  69.8061075  20.7785029  42.1260449  69.0728935  20.3712094
  42.5475106  70.3547932  20.1251362  42.3581397  69.7783466  20.6215252
  37.5973094  65.0969634  22.1905951  37.4015877  65.7044369  21.5966254
  37.8207440  64.4037578  21.7097625  37.6007735  65.0847160  22.0322032
  35.9951624  61.9824372  22.3086820  36.7174276  62.1465530  21.8490626
  35.5159617  62.7034037  22.2026159  36.0315355  62.1122602  22.2252434
  30.7326147  58.8952636  21.7104696  30.8342284  59.6978798  22.0385672
  31.5282034  58.6939972  21.4127777  30.8654053  58.9838535  21.7140051
  41.7028472  60.8466905  23.5970306  41.4563186  60.7662656  24.4307095
  42.0313595  60.0620373  23.4032833  41.7149715  60.7193170  23.6917829
  45.5976520  67.5550264  27.3857087  45.4590880  68.2531310  27.8905830
  44.8176518  67.3998921  27.0293269  45.4619747  67.6350431  27.4083361
  43.9354606  63.8546640  33.6379469  43.9302644  62.9826456  33.6421895
  44.6415599  64.0534809  33.1648925  44.0399610  63.7550514  33.5686504
  36.7353254  71.7726395  29.8754316  36.8842818  71.2129311  29.2227720
  37.5153256  71.8518397  30.2586835  36.8727347  71.7011961  29.8351265
  47.0929893  66.9128518  18.1473586  46.7136702  66.1265656  18.1402876
  46.4296139  67.4615375  18.0045231  46.9388368  66.8773342  18.1254383
  39.2606554  71.9441038  31.1538807  39.1850226  71.2749849  31.7089595
  39.1896414  72.6458826  31.6679473  39.2387161  71.9485946  31.3115655
  39.9176801  70.4642037  21.9862413  40.6826693  70.1951681  21.6645077
  39.8154891  69.9792047  22.7032475  40.0158297  70.3531602  22.0442240
  42.4395462  67.4954221  13.9662362  43.2068447  67.5554346  13.5568214
  41.9926771  66.9234662  13.4818680  42.4868889  67.4190797  13.8340072
  43.3373257  66.3008877  26.2515094  42.6618259  66.0694109  26.7528481
  43.3465634  65.6930060  25.6257199  43.2391762  66.1767802  26.2331247
  45.3389992  69.1574009  18.4825272  45.4209829  69.9640995  18.1586723
  45.8239734  69.1769968  19.2066046  45.4227150  69.2794671  18.5412171
  39.1486495  63.8358845  27.1495350  38.7248744  64.0363344  26.4134369
  38.9731351  62.9887693  27.2619650  39.0597376  63.7407626  27.0569040
  38.6498189  75.3509358  29.6116807  39.1394119  74.6520147  29.4292472
  38.0782421  75.0533228  30.1992865  38.6382719  75.2035582  29.6717848
  34.4368940  64.3310896  22.5823323  34.5933559  64.2657699  23.4379315
  34.7769533  65.1059449  22.3702002  34.5102175  64.4360095  22.6777917
  40.9748085  63.7068780  21.4516686  41.5163630  63.2039161  21.9155306
  41.2894644  63.6533975  20.6406171  41.1012482  63.6248201  21.4000498
  44.8465192  67.9171427  38.5643598  45.6600058  67.6456576  38.7248731
  44.6860159  67.6178967  37.7603794  44.9435141  67.8326353  38.4689004
  39.1434535  69.0986132  18.7356714  39.2127355  68.2400670  18.8749714
  39.9222990  69.3158012  18.4075739  39.2687385  69.0038995  18.7073871
  43.5342022  71.5223833  22.9493207  43.1421814  71.2190548  22.2316073
  43.6895094  72.3592923  22.7598161  43.4995612  71.6007670  22.8149704
  31.0103202  61.5145847  22.8984090  31.3902167  61.9330392  22.2344357
  30.4358567  62.0959303  23.2052933  30.9814527  61.6623706  22.8460831
  43.6981697  68.0873822  22.8899238  43.3396352  68.2588465  23.6663270
  43.2120408  68.5487027  22.3327236  43.5740394  68.1812793  22.9224507
  38.4870062  63.7672987  15.4299472  38.7762587  64.5437870  15.7043046
  38.5741861  63.2561719  16.1313972  38.5424319  63.8064905  15.5741970
  44.8586436  68.9777718  33.8366439  45.4966157  68.4837913  33.5028895
  44.2160528  68.9055118  33.2518666  44.8580663  68.8936726  33.7008794
  44.9140693  69.6697526  30.4771795  45.7033071  69.3186591  30.5973877
  45.0884291  70.4833914  30.2148429  45.0560975  69.7383383  30.4559663
  32.1309570  60.7025789  25.3584335  31.7366268  60.7768800  24.5834445
  31.5749687  61.0883735  25.9092697  31.9912383  60.7707563  25.3251995
  37.5216765  58.3188171  21.3441884  37.7976500  57.6007083  20.9319451
  38.1215435  58.9173091  21.1362990  37.6510030  58.3008541  21.2522645
  36.5269019  68.2237372  31.4869280  36.4189374  68.2339434  32.3531338
  36.7364801  69.0492152  31.2974233  36.5419130  68.3478446  31.5873371
  44.3032327  70.9259326  26.3823242  44.1052016  71.4150140  25.6879453
  43.6820038  71.1300567  26.9607375  44.1819892  71.0275864  26.3646465
  38.3640306  62.6944222  20.7233486  39.1082351  63.0818499  20.9616436
  38.5101002  61.8501648  20.8873974  38.4950891  62.6274695  20.7827456
  46.2206129  64.4923478  31.9168490  46.9440328  64.0396004  31.7379510
  45.9556092  64.7728143  31.1340818  46.2887403  64.4674446  31.7747205
  35.2734746  57.4308770  14.7094054  34.9247551  58.0828495  15.1725604
  34.7931192  57.4165883  13.9817925  35.1504990  57.5251823  14.6705145
  42.8338764  67.7309814  18.8162816  43.5572963  68.1967927  18.6727389
  42.3939355  67.7983423  18.0660413  42.8754456  67.8093651  18.6847597
  42.0024919  64.5907356  30.0663505  41.3881912  64.0465406  30.3612140
  42.5192204  64.0771593  29.5869321  41.9880581  64.4343765  30.0387733
  27.0814516  63.8211876  27.4493482  26.9757965  63.7758720  26.5845566
  26.3314736  64.1665656  27.7307767  26.9550118  63.8652784  27.3630811
  38.0337861  64.8311939  35.4976377  37.1833491  64.9683653  35.6334022
  38.1965989  64.0975717  35.9424078  37.9321724  64.7426040  35.5831976
  35.6458655  60.0567300  20.2220099  35.7861616  60.5539764  20.9248740
  36.1441188  59.3553595  20.3634312  35.7399736  60.0269279  20.3471678
  35.6758878  60.9234411  17.5512676  36.3103957  61.5194836  17.4862137
  35.7584488  60.6237869  18.3658546  35.7815429  60.9675319  17.6615762
  37.2537860  56.8548387  17.5258118  37.5753701  56.3751469  16.8717380
  37.5164804  57.6648033  17.3348929  37.3403886  56.9038285  17.4013610
  40.4834833  67.8767261  31.0456934  39.9759924  68.4303108  31.4897564
  40.1861479  67.9375551  30.2275708  40.3639718  67.9673572  30.9905390
  32.1811865  63.1202252  20.8202222  32.6904095  63.7166760  21.2013527
  32.6546138  62.8528226  20.1378641  32.3255241  63.1688067  20.7756744
  43.0942614  71.7930519  18.9760877  42.3771923  71.6191381  18.5108114
  43.7449351  71.5583091  18.4436363  43.0844464  71.7326311  18.8290095
  39.7277318  72.8091819  27.9513941  39.5042973  72.0510649  28.3197967
  39.2387162  72.8389840  27.2294380  39.6220767  72.7014044  27.8990681
  34.5402397  59.7558511  23.6875402  33.8214386  60.1722643  23.9548266
  34.9114759  60.3212749  23.1367040  34.4894329  59.9007792  23.6458209
  41.7848308  66.9773551  35.5025874  41.7444163  66.3323228  34.9171030
  42.5971626  66.9210169  35.8151286  41.8991461  66.8732518  35.4622823
  38.3755775  73.0292277  25.4051025  37.9616174  72.3666408  25.0154867
  39.0603150  73.1770136  24.8846719  38.4154147  72.9532936  25.2707522
  41.7421070  72.1882363  26.1574642  41.3437353  72.2984633  25.3895462
  41.1272289  72.3964429  26.7401202  41.5919959  72.2355931  26.1305941
  40.3148972  58.7956510  19.0248781  39.7213811  59.1173507  18.4733348
  40.3524249  57.9497606  18.8169888  40.2323361  58.7180839  18.9131553
  49.4762912  66.7634329  19.5417732  49.8596518  67.5125686  19.7715829
  48.6807026  67.0100149  19.2829721  49.4156694  66.9104023  19.5375306
  29.2193796  61.9554929  29.9666484  28.6720515  61.2855574  30.0847352
  30.0086174  61.5884777  30.0309951  29.2545979  61.8019915  29.9935184
  38.2878204  59.4353761  17.1178111  38.6677169  59.4533390  16.3329226
  37.5470800  59.8807750  16.9968959  38.2347042  59.5035536  16.9841680
  27.9780765  61.1675737  27.1212507  27.8002526  60.7152346  27.8467422
  27.6899787  61.9701898  27.3050984  27.9093718  61.2198295  27.2556009
  43.6404346  62.4233454  26.3589897  44.1358012  61.7056449  26.3193917
  42.8304122  62.1204252  26.2444384  43.5948240  62.2731100  26.3363623
  39.0862958  66.2731267  18.5086901  38.2774281  65.9497941  18.4620211
  39.5937867  65.5664489  18.4415150  39.0412625  66.1212584  18.4917196
  29.7153235  63.7003460  24.2334266  28.8498755  63.6889151  24.1217037
  29.8152051  63.5133683  25.0805405  29.6027402  63.6709522  24.3423210
  35.3410245  73.4701359  27.8064371  35.6556804  74.2837748  27.8142153
  35.7503658  73.0851578  28.4746530  35.4478343  73.5330061  27.9068463
  42.2934765  68.8871406  25.3768183  42.7645943  69.6011668  25.5458168
  42.6294943  68.2870156  25.9128053  42.4129880  68.9042870  25.4800559
  44.3811749  70.4972719  37.5560255  44.4908715  69.7081280  37.9117002
  44.7102646  70.4078655  36.7534593  44.4464155  70.3678572  37.4902646
  42.9308711  68.6789340  32.1395876  42.3829657  68.0547224  31.8715941
  43.3921740  68.8683612  31.4239955  42.9175920  68.6148390  31.9946307
  38.2797374  55.6615289  19.8005743  39.1013069  55.8313602  19.5587438
  37.8167025  55.8162550  19.0772040  38.3328537  55.7097022  19.6577387
  32.6823265  67.4174468  27.4542980  33.2868123  67.3770302  26.8256800
  32.4750578  68.2645620  27.4847035  32.7412162  67.5362470  27.3659096
  42.4967037  69.6840413  28.6705217  43.3165411  69.5403379  28.9321512
  42.2161115  70.3086612  29.2121655  42.5763781  69.7550765  28.7893156
  27.9174547  66.4009085  27.3241903  27.8198825  65.5905357  27.6331959
  28.7003417  66.3800878  26.9388171  28.0190684  66.2776175  27.3128766
  58.9680688  77.3405264  21.6348093  58.9374692  78.1949901  21.8066363
  59.5662036  77.0400557  22.1934237  59.0517846  77.4221761  21.7422896
  52.1680373  76.4280915  26.3901024  51.3118268  76.5889414  26.4410141
  52.2148026  75.5572979  26.4106085  52.0479484  76.3231717  26.4007090
  55.4774089  82.6967441  35.9961480  56.1840856  82.2019472  36.1248414
  55.6662025  83.1376523  35.2664138  55.6101995  82.6885791  35.9070525
  55.0132194  78.4872959  29.0332675  55.5588154  79.1658046  29.0926645
  54.9549070  78.3460420  28.1734257  55.0848108  78.5664961  28.9144736
  43.6261400  74.1668043  26.9437669  43.0066432  73.5760690  26.7747684
  43.5245264  74.7579478  26.3101992  43.5199076  74.1672125  26.8242659
  50.7229296  75.9067584  21.2770132  51.4209460  76.0855712  21.7691596
  51.0381628  75.3837924  20.6540522  50.8724633  75.8561356  21.2572142
  43.3530533  77.7120324  29.1881238  43.2289230  78.2982770  29.8231057
  44.0048818  77.2180520  29.4893513  43.4304183  77.7259129  29.3267167
  48.3788874  80.8882041  28.4668749  49.0237877  80.3954484  28.1479698
  48.6190651  81.0306828  29.2934828  48.5099459  80.8359483  28.5418282
  50.9174966  83.7336947  28.1175642  51.1998208  82.9388353  27.8962398
  51.6461126  84.2117535  28.1380703  51.0664529  83.6871544  28.0878657
  48.8956159  71.2759981  25.3591407  48.5659489  71.7271125  24.6895106
  48.2201161  71.1976144  25.9064413  48.7466596  71.3311116  25.3414630
  56.1032567  67.2645504  23.6041018  55.7886008  67.9548983  24.0361440
  55.5859509  67.2090286  22.9026518  55.9797038  67.3580392  23.5637967
  47.1012113  69.3372269  20.8414355  47.8558081  69.7050587  20.6031405
  46.9239648  69.7111824  21.6093534  47.1866592  69.4470457  20.9199243
  60.3947012  75.4866710  28.8861894  59.5575433  75.5568897  29.1209488
  60.3635243  75.4891205  28.0136196  60.2665295  75.4976937  28.7921442
  46.7911741  77.6299746  34.6010263  46.9632245  77.5205640  35.4495544
  47.3281099  78.2754151  34.3641455  46.8956745  77.7091747  34.6915359
  45.4569178  71.7442588  17.5392468  45.2744751  71.9614469  16.7133460
  46.3194791  71.8581601  17.5951082  45.5573768  71.7932486  17.4246955
  51.1368897  68.7468999  20.5741491  51.8655058  68.5684954  20.1279648
  51.2263790  69.5887079  20.7848670  51.2575559  68.8452878  20.5395009
  55.1177198  79.6822386  24.4773785  55.8734713  80.1153901  24.5162694
  55.2239522  79.0327156  25.0508421  55.2447369  79.6499870  24.5671811
  41.0973458  80.2231677  29.4363183  40.8311873  79.4070793  29.5954173
  41.1112022  80.2684832  28.5658698  41.0598180  80.1088581  29.3316665
  58.0754852  70.5509492  27.4705616  58.7180760  70.6207596  28.0567532
  58.3277873  69.8838714  26.9685158  58.2076984  70.4635840  27.4832896
  45.0031205  75.0216761  16.0514941  44.2889382  74.7354941  16.4637373
  45.4875174  75.3613387  16.6921328  44.9690568  75.0298411  16.2070576
  45.8472065  73.7610055  32.0830190  45.1543861  73.2907035  32.3290922
  46.4632392  73.5348359  32.6571897  45.8356594  73.6577187  32.2039343
  41.5066872  81.0090456  26.7174927  41.3242445  80.9837342  25.8647219
  42.2416541  81.4789394  26.7563836  41.5880936  81.0751818  26.5972845
  44.5712623  77.7275459  33.2257035  45.2952596  77.7128490  33.7121930
  44.6728760  78.4370814  32.7279004  44.6930833  77.8300162  33.2235822
  51.9457573  81.2074544  38.0905982  51.1530554  81.5218055  38.2758602
  52.0606500  81.4226012  37.2526767  51.8452983  81.2858380  37.9944317
  54.6188892  77.9308535  22.3800998  54.7135746  78.6697829  22.8340624
  53.9947735  77.5026010  22.8135563  54.5397922  77.9769855  22.5109146
  52.8741366  81.1094747  33.0291279  53.4480227  80.4721991  33.1839843
  52.7956169  81.1098830  32.1600937  52.9474601  81.0159859  32.9237690
  41.4737782  77.8883957  26.8673993  42.0511285  77.7520408  27.5066239
  40.7751844  77.4319741  27.1219578  41.4558804  77.8006223  26.9996283
  48.2305084  79.5418012  25.0812477  47.9724329  78.7089747  25.0543776
  48.2853567  79.7675625  24.2404977  48.2004862  79.4515784  24.9532613
  53.3106134  71.6446463  25.1816569  52.6062461  71.1555649  25.3400488
  53.3591109  71.6568938  24.3105014  53.2136186  71.5736111  25.0755909
  47.2039796  77.0955775  25.5677371  46.6289388  77.2547943  26.2041332
  46.8275473  76.4591184  25.1045822  47.0642609  77.0253588  25.5931930
  50.8713085  75.5679124  30.4269750  50.4827518  75.1433342  29.7721941
  50.2067783  75.8161274  30.9346776  50.7160013  75.5417845  30.4057618
  60.5136354  75.3254129  23.2017580  60.2572919  74.5134070  23.0115463
  61.3565668  75.3331696  22.9747767  60.6002380  75.2066126  23.1402397
  36.9496615  76.7395850  23.5821812  37.0356867  76.3627718  24.3635342
  37.5772413  76.3656295  23.1041770  37.0553166  76.6281332  23.6267289
  54.6939447  69.2653753  27.9393734  55.0749958  68.5831924  28.3261608
  53.8902731  68.9763355  27.7569398  54.6315908  69.1220801  27.9697790
  47.8459932  83.2699246  23.7518869  48.4833879  83.0310994  24.2970662
  48.2715003  83.4736405  23.0172029  48.0036098  83.2650256  23.7236026
  48.4862747  78.4901536  18.0893758  48.8707899  78.2709243  18.8410303
  48.2374367  79.3164481  18.2194835  48.5064819  78.5799682  18.2194835
  48.6531287  71.7707951  37.8056342  48.3384728  72.5407514  37.5425905
  48.3321220  71.2078207  37.2208569  48.5590206  71.8018220  37.6797692
  50.2281404  83.7471669  25.4312655  50.3020412  83.5846841  26.2854505
  51.0450910  83.9361858  25.1873137  50.3597762  83.7508411  25.5210681
  46.2063184  70.1598473  23.4202539  45.3385609  70.2321072  23.4860148
  46.4938388  70.9620552  23.6090514  46.1202932  70.2892620  23.4577305
  55.3296073  70.3076332  31.7513861  56.0749665  70.1186142  31.3377286
  54.9133377  70.8334570  31.1927717  55.3781047  70.3578477  31.6078434
  62.7058344  77.6785561  26.7019366  63.2566265  77.0453630  26.9416458
  62.6902459  78.2100953  27.3934870  62.7843540  77.6634509  26.8398224
  49.3580734  81.5124158  31.2479259  48.8592428  82.2239926  31.3264147
  50.1680959  81.8324824  31.2097421  49.4036841  81.6651006  31.2535828
  45.6208852  80.7747111  25.4941980  45.3322101  80.1484582  26.0287707
  46.4892200  80.7167398  25.5606660  45.7069104  80.6734655  25.5832934
  56.4086750  75.9181894  25.8123962  56.0651516  75.1972229  26.1631211
  56.5079792  75.7095745  24.9702320  56.3728793  75.7806097  25.7395642
  45.8241125  82.4142362  21.4184345  46.5787093  82.7955401  21.6319807
  45.2311738  82.8653506  21.8731041  45.8477839  82.5371189  21.5167223
  48.2847792  74.3705202  36.5441557  47.4747568  74.6762982  36.4331400
  48.7622479  75.0910785  36.6594141  48.2351271  74.5219803  36.5448628
  44.1330536  73.6356732  20.8619415  43.8455332  73.2658002  20.1251362
  44.8201004  74.1051587  20.6003120  44.1919433  73.6503701  20.7134491
  48.5705678  80.6154942  22.1905951  48.3748460  81.2229677  21.5966254
  48.7940023  79.9222886  21.7097625  48.5740319  80.6032468  22.0322032
  46.9684208  77.5009680  22.3086820  47.6906860  77.6650838  21.8490626
  46.4892200  78.2219345  22.2026159  47.0047938  77.6307910  22.2252434
  54.9277715  73.8373479  27.6883505  54.0888816  73.8634758  27.4521768
  54.9982083  74.4844214  28.2688851  54.8146109  73.9369605  27.7392622
  44.6191824  79.9067753  31.4140960  45.1312921  80.1852006  30.7649719
  44.3328167  80.6457047  31.7803773  44.6526688  80.0570106  31.3730838
  53.3746994  70.7358856  22.4211121  54.0773346  70.5366604  21.9431079
  53.1091182  69.9634798  22.7279964  53.4393626  70.5921822  22.3956562
  58.8035239  79.0441466  24.9744746  58.7169214  79.1996892  25.8279525
  58.3485719  79.6879541  24.6004151  58.7238496  79.1617221  25.0451853
  41.7058731  74.4137944  21.7104696  41.8074867  75.2164106  22.0385672
  42.5014617  74.2125280  21.4127777  41.8386636  74.5023843  21.7140051
  48.1375550  71.9994141  31.4742001  47.9458747  72.0149276  32.3241425
  48.9874146  72.1957815  31.4508656  48.2351272  72.0308492  31.5965296
  42.5222463  74.5285123  29.4525818  42.3807955  73.6769063  29.5770326
  42.8063026  74.5713783  28.6288024  42.5430309  74.4084873  29.3493442
  52.6761055  76.3652213  23.5970306  52.4295769  76.2847964  24.4307095
  53.0046178  75.5805681  23.4032833  52.6882299  76.2378478  23.6917829
  54.9087189  79.3731948  33.6379469  54.9035228  78.5011764  33.6421895
  55.6148183  79.5720117  33.1648925  55.0132193  79.2735822  33.5686504
  48.6358082  79.1008931  33.0093289  48.7801458  79.6810140  32.3736399
  48.9833731  79.4785228  33.7143144  48.7085544  79.2429635  33.0192284
  50.8078000  78.2999100  30.7918421  50.0601314  78.4930114  30.3866699
  50.9619525  77.4744319  30.5542542  50.7200427  78.2064211  30.6963826
  51.0479777  72.1949650  31.6813824  51.5052391  72.9273625  31.8086617
  51.1236106  71.7716116  32.4401080  51.1270747  72.2406889  31.8114901
  43.2912768  72.4415470  32.7703268  42.7554958  71.8295828  33.0864035
  43.3530533  73.0163606  33.4236935  43.2208401  72.4362398  32.9138695
  55.5207103  65.3739526  25.5507667  55.6390671  65.8315989  24.8174970
  55.3469278  64.5684787  25.2643885  55.5126274  65.3233298  25.4008601
  48.9262155  74.1851754  28.5255648  48.1358229  74.0043215  28.8472984
  49.3222778  73.4078707  28.5085943  48.8679031  74.0439215  28.5708197
  54.3105841  81.8194185  26.2515094  53.6350843  81.5879417  26.7528481
  54.3198217  81.2115368  25.6257199  54.2124346  81.6953110  26.2331247
  51.4399985  76.6612014  33.0079147  51.3759126  77.5221970  32.8799284
  51.5797173  76.3444007  32.2074699  51.4515455  76.7412180  32.8707360
  50.1219079  79.3544153  27.1495350  49.6981328  79.5548652  26.4134369
  49.9463934  78.5073001  27.2619650  50.0329960  79.2592934  27.0569040
  45.4101524  79.8496204  22.5823323  45.5666143  79.7843007  23.4379315
  45.7502117  80.6244757  22.3702002  45.4834759  79.9545402  22.6777917
  51.9480668  79.2254088  21.4516686  52.4896214  78.7224469  21.9155306
  52.2627228  79.1719283  20.6406171  52.0745066  79.1433509  21.4000498
  53.0969938  74.1190392  31.5038986  53.3111907  73.4801307  30.9502340
  52.4803837  74.5636216  31.0746848  53.0375267  74.0900536  31.3589417
  41.9835785  77.0331155  22.8984090  42.3634750  77.4515700  22.2344357
  41.4091150  77.6144610  23.2052933  41.9547110  77.1809014  22.8460831
  55.2609026  75.7279458  32.4422293  54.4485708  75.4205348  32.5235466
  55.7198960  75.2478458  33.0065006  55.2089411  75.6115950  32.5376888
  52.3562533  77.1339529  37.2250996  52.8262165  77.7581645  37.6118870
  52.4024414  76.4656505  37.7844210  52.4330409  77.1274209  37.3651067
  49.5133807  69.2396557  27.9499800  48.9972296  68.5476748  28.0751379
  48.9527736  69.9067334  27.8962398  49.3540320  69.2359814  27.9605866
  51.5826040  69.7789517  29.7792652  51.1957794  69.8038548  30.5606182
  51.0958978  69.2131195  29.3267169  51.4538549  69.6985267  29.8280556
  57.5576020  76.3452171  28.4032354  57.1303628  76.2578520  27.6480454
  56.9202073  76.4529947  28.9887198  57.4005627  76.3484831  28.3777796
  51.0497097  71.4527697  34.3429324  51.8770526  71.1812846  34.3987938
  51.0704943  72.2488538  34.6993142  51.1749947  71.5307451  34.4044507
  45.6266587  78.5991560  27.5299584  44.7854593  78.4995434  27.7378478
  45.8356595  79.3687040  27.8813905  45.5331279  78.6983603  27.6126899
  43.1042154  76.2211096  25.3584335  42.7098852  76.2954108  24.5834445
  42.5482271  76.6069043  25.9092697  42.9644966  76.2892871  25.3251995
  54.7407101  69.1992390  25.0388214  54.9456694  69.1314698  25.8845211
  54.4133525  70.0051212  24.9709391  54.7222349  69.3078331  25.1547869
  49.4383252  76.5272959  26.7797182  49.1346389  75.9728947  27.3807589
  48.7362673  76.7065169  26.2925216  49.2899462  76.4717741  26.7966887
  48.4949349  73.8373479  21.3441884  48.7709083  73.1192391  20.9319451
  49.0948018  74.4358398  21.1362990  48.6242613  73.8193849  21.2522645
  57.9940788  69.7524155  24.5190979  57.3815102  70.2394557  24.9044711
  58.0904963  69.0767646  25.0628630  57.9178686  69.7242463  24.6569838
  51.9959869  71.5086996  19.6188479  52.4503616  71.6797556  20.3436323
  52.4699915  70.8955107  19.2186254  52.1328190  71.4437881  19.6662240
  45.5175395  80.9935322  28.9491217  44.9263328  81.6344820  28.9194232
  46.2796418  81.4172939  28.9222517  45.5423655  81.1511160  28.9406364
  45.9136018  72.1537320  29.6159235  46.3737499  72.2276249  30.3534359
  45.9592124  72.9518574  29.2659056  45.9886573  72.2831467  29.6731991
  47.5619367  72.8204014  34.1831262  47.1704932  72.1737362  34.6187040
  47.7305230  73.4115450  34.8025517  47.5290278  72.8118282  34.3393968
  49.3372889  78.2129530  20.7233486  50.0814934  78.6003807  20.9616436
  49.4833586  77.3686956  20.8873974  49.4683474  78.1460003  20.7827456
  51.2552465  70.0079789  25.7565347  50.4088510  70.1802597  25.6306697
  51.2523597  69.2029133  26.0931176  51.1299615  69.9140818  25.7876474
  52.3250765  73.7855004  26.6227405  51.8510719  73.2596766  27.1332716
  52.6968901  73.2384476  26.0542267  52.3100654  73.6271000  26.6142552
  42.7023795  75.7826510  31.9910951  43.5649408  75.6822219  31.9048281
  42.3715578  75.2021220  31.4296523  42.7808992  75.6818137  31.8956357
  58.5887496  78.8457379  28.0334186  58.3485719  78.0063794  28.0376612
  59.0679503  78.9257546  28.7574959  58.6239679  78.7338779  28.1408988
  54.2534265  74.6791558  19.6853159  53.7257283  74.7620302  18.9958868
  54.7129973  75.4209430  19.6817804  54.2436115  74.8012221  19.5827854
  60.5892683  75.6258836  25.9863445  60.3502453  75.5854671  25.1484229
  60.7526584  76.4729988  26.1129166  60.5782986  75.7450921  25.8816927
  57.1938713  80.0108786  31.9168490  57.9172912  79.5581312  31.7379510
  56.9288675  80.2913451  31.1340818  57.2619986  79.9859754  31.7747205
  46.0625581  74.6068959  28.6521369  45.4378651  74.6187351  28.0447322
  45.7271176  75.0829134  29.3012609  45.9211073  74.6787476  28.6577938
  46.2467330  72.9494078  14.7094054  45.8980134  73.6013803  15.1725604
  45.7663776  72.9351191  13.9817925  46.1237574  73.0437131  14.6705145
  52.9757502  80.1092664  30.0663505  52.3614496  79.5650714  30.3612140
  53.4924787  79.5956900  29.5869321  52.9613165  79.9529073  30.0387733
  52.2153800  81.1796934  27.8007804  51.7881408  80.5546653  27.3673239
  52.2078744  80.8971856  28.6266811  52.1512941  81.0449715  27.8587631
  45.3316327  76.2162107  30.8696238  45.4909813  75.4605431  31.2747960
  45.1509220  76.7653047  31.5236975  45.3281686  76.1855921  31.0258944
  53.2736630  68.3823343  31.4247027  52.7777191  68.5787017  30.7338594
  54.0305692  68.7816011  31.2535829  53.3123454  68.4701076  31.2967164
  50.5439509  72.0565689  28.0150338  50.5681996  71.5225801  27.3263118
  50.7950983  71.5482997  28.6775928  50.5849428  71.9026592  28.0114982
  38.0547099  79.3397184  27.4493482  37.9490548  79.2944028  26.5845566
  37.3047319  79.6850964  27.7307767  37.9282702  79.3838092  27.3630811
  46.8240832  70.7836507  27.3956082  46.8639203  71.2845713  28.1090789
  45.9990496  70.8746900  27.1262005  46.7080357  70.8718323  27.4606620
  49.0070444  80.3497247  35.4976377  48.1566075  80.4868961  35.6334022
  49.1698572  79.6161025  35.9424078  48.9054308  80.2611348  35.5831976
  48.2455195  77.2997017  29.6929981  47.4147125  77.4670835  29.4865229
  48.1906712  76.9232967  30.4778866  48.1144610  77.2686748  29.7778509
  46.0538978  70.7905910  35.3286392  46.6791682  70.2468042  35.6015824
  45.5989458  70.3100827  34.7594182  46.0787239  70.6395391  35.2847986
  46.6191239  75.5752608  20.2220099  46.7594200  76.0725072  20.9248740
  47.1173772  74.8738903  20.3634312  46.7132320  75.5454587  20.3471678
  46.6491461  76.4419719  17.5512676  47.2836541  77.0380144  17.4862137
  46.7317072  76.1423177  18.3658546  46.7548012  76.4860627  17.6615762
  59.6274027  78.9735197  30.4199040  60.2191867  79.6132447  30.4517238
  60.0633021  78.2758233  30.7091107  59.7792458  78.9653547  30.4679872
  48.2270444  72.3733695  17.5258118  48.5486285  71.8936777  16.8717380
  48.4897388  73.1833341  17.3348929  48.3136469  72.4223593  17.4013610
  51.4567417  83.3952569  31.0456934  50.9492508  83.9488416  31.4897564
  51.1594063  83.4560859  30.2275708  51.3372302  83.4858880  30.9905390
  53.6229599  71.7605889  29.8881597  54.0484671  71.3078415  29.2765123
  53.0086592  71.2065959  30.1646384  53.5958244  71.6119865  29.8386622
  43.1544449  78.6387560  20.8202222  43.6636678  79.2352067  21.2013527
  43.6278721  78.3713534  20.1378641  43.2987825  78.6873375  20.7756744
  52.0623822  68.2320988  23.2972174  51.4192140  68.0818635  23.8657312
  51.7223229  67.9863334  22.5321278  51.9168899  68.1733111  23.2675189
  56.6523168  76.1880415  22.7202182  55.9814358  76.7310117  22.5915248
  57.3462919  76.6575271  22.4783877  56.6552036  76.3378686  22.6657710
  56.8151296  72.6436299  25.6292555  57.1678906  72.2166022  26.3038354
  55.9566097  72.5587142  25.7593632  56.7400740  72.5681039  25.7487566
  45.5134981  75.2743819  23.6875402  44.7946970  75.6907951  23.9548266
  45.8847343  75.8398057  23.1367040  45.4626913  75.4193100  23.6458209
  54.8134562  75.9071667  29.5777398  54.7932489  75.7254963  30.4312177
  54.8613762  76.7783686  29.5536981  54.8169203  76.0088206  29.7000692
  52.7580891  82.4958859  35.5025874  52.7176746  81.8508536  34.9171030
  53.5704210  82.4395477  35.8151286  52.8724045  82.3917826  35.4622823
  51.2881555  74.3141818  19.0248781  50.6946394  74.6358815  18.4733348
  51.3256833  73.4682914  18.8169888  51.2055944  74.2366147  18.9131553
  58.2475356  67.7654711  26.5576868  57.7406221  67.0583850  26.4898045
  59.0442790  67.4347899  26.6877945  58.2902595  67.6127862  26.5675863
  54.1639372  74.2721323  22.4550532  53.9353065  74.2954024  21.6128890
  54.4237448  73.4478790  22.5745542  54.1685560  74.1537403  22.3475729
  48.4458600  76.1255796  32.0575632  47.9337503  75.5176979  32.4160663
  48.2738096  76.8412388  32.5249608  48.3448237  76.1419095  32.1791856
  43.2924315  74.5693371  34.7077994  43.1226905  75.2294746  34.1626200
  42.8490265  74.7799933  35.4290483  43.2023648  74.6979353  34.7339623
  47.2184134  72.8097869  23.7504727  47.6941500  73.1714949  23.1154908
  46.7172734  73.4654337  24.0304870  47.2149493  72.9592058  23.6981468
  52.3227670  74.0480041  34.4977887  52.8799101  73.8193850  33.8656353
  51.9988736  74.8085706  34.2213100  52.3574081  74.1263877  34.3634385
  40.1926379  77.4740237  29.9666484  39.6453099  76.8040882  30.0847352
  40.9818758  77.1070085  30.0309951  40.2278563  77.3205223  29.9935184
  50.0410788  77.1347694  35.4629895  50.7922115  77.4499371  35.7769449
  50.2333364  76.9326865  34.6363816  50.1802202  77.1515076  35.3873290
  49.2610787  74.9539069  17.1178111  49.6409752  74.9718698  16.3329226
  48.5203383  75.3993058  16.9968959  49.2079625  75.0220844  16.9841680
  56.8896078  73.2621260  22.7053690  56.8890304  73.1069917  23.5637966
  56.6852258  74.1084247  22.6495076  56.8595856  73.3641881  22.8241629
  38.9513349  76.6861045  27.1212507  38.7735110  76.2337654  27.8467422
  38.6632371  77.4887206  27.3050984  38.8826302  76.7383602  27.2556009
  54.6136930  77.9418762  26.3589897  55.1090595  77.2241757  26.3193917
  53.8036706  77.6389560  26.2444384  54.5680823  77.7916408  26.3363623
  40.6885819  79.2188768  24.2334266  39.8231338  79.2074459  24.1217037
  40.7884635  79.0318991  25.0805405  40.5759986  79.1894830  24.3423210
  56.6788749  80.6922449  29.0467026  57.1043820  80.1696871  28.4937451
  56.3145669  81.2903287  28.5255649  56.6875351  80.7032677  28.8876035
  53.2667348  84.4056714  25.3768183  53.7378526  85.1196976  25.5458168
  53.6027527  83.8055464  25.9128053  53.3862463  84.4228178  25.4800559
  53.9041295  84.1974648  32.1395876  53.3562241  83.5732532  31.8715941
  54.3654323  84.3868920  31.4239955  53.8908504  84.1333698  31.9946307
  56.7135159  72.2660002  29.5247068  56.1298148  72.7669209  29.1124635
  57.0339453  71.7589559  28.8911391  56.6748334  72.2651837  29.3705575
  49.2529958  71.1800597  19.8005743  50.0745652  71.3498910  19.5587438
  48.7899609  71.3347858  19.0772040  49.3061120  71.2282330  19.6577387
  47.8425290  69.1743359  30.5804172  48.3869703  68.8334486  31.1708513
  47.8962226  70.0328821  30.7225456  47.9314409  69.2498619  30.6886045
  22.2527162  13.0789648  22.9301527  22.9593930  12.5841679  23.0588461
  22.4415098  13.5198730  22.2004185  22.3855068  13.0707999  22.8410572
  19.3919457  16.5017185  20.8215602  19.4802802  16.3143325  21.6693812
  19.8209169  15.8554614  20.4220449  19.4681559  16.3780193  20.8887353
  16.9589916  15.7848345  19.8033264  16.3960751  15.3720955  20.3272925
  17.7210940  15.7101251  20.2226407  16.9884365  15.7125745  19.9426264
  13.5664814   8.0121953  21.5350309  13.7385318   7.9027848  22.3835591
  14.1034172   8.6576358  21.2981502  13.6709818   8.0913955  21.6255406
  19.5039516  15.9326204  23.4859386  20.2879933  16.0457052  23.8515128
  19.3036110  15.1067341  23.6818071  19.5905541  15.8272923  23.5693772
  19.6609909  17.8436306  17.1325841  18.8625155  17.6035806  17.3899710
  20.1095921  17.8950699  17.8792889  19.6084520  17.8158697  17.2810765
  18.7210646  11.5896751  25.0246029  17.9283627  11.9040263  25.2098649
  18.8359573  11.8048219  24.1866814  18.6206057  11.6680588  24.9284364
  19.6494439  11.4916955  19.9631326  20.2233301  10.8544199  20.1179890
  19.5709243  11.4921037  19.0940984  19.7227674  11.3982066  19.8577737
  24.9714587  12.8625932  19.9716179  24.7353224  12.0313997  19.8528240
  25.6157816  12.8111539  20.5571023  25.0309257  12.7323620  20.0402073
  25.9951007  12.6470381  16.0344474  25.6896824  13.3798438  16.3957789
  25.2757223  12.2408311  15.7537260  25.8438350  12.6952114  16.0457611
  16.1333808  11.8946365  18.1819306  15.6345501  12.6062133  18.2604194
  16.9434032  12.2147032  18.1437468  16.1789914  12.0473214  18.1875874
  15.0600866   4.7527410  23.4781604  14.2500641   5.0585189  23.3671446
  15.5375552   5.4732992  23.5934188  15.0104344   4.9042011  23.4788675
  21.6840262   9.7554155  20.5719516  21.6788301   8.8833971  20.5761942
  22.3901256   9.9542324  20.0988971  21.7885266   9.6558029  20.5026551
  15.4111156   9.4831139  19.9433336  15.5554531  10.0632347  19.3076446
  15.7586804   9.8607436  20.6483190  15.4838617   9.6251843  19.9532331
  14.4838911  17.6733911  16.8094363  14.6328474  17.1136827  16.1567767
  15.2638913  17.7525912  17.1926881  14.6213004  17.6019476  16.7691312
  17.0092211  17.8448554  18.0878853  16.9335882  17.1757364  18.6429642
  16.9382070  18.5466342  18.6019520  16.9872818  17.8493461  18.2455702
  16.3983846  21.2516873  16.5456854  16.8879776  20.5527663  16.3632519
  15.8268078  20.9540743  17.1332912  16.3868376  21.1043097  16.6057895
  22.5950849  13.8178943  25.4983645  23.4085714  13.5464092  25.6588777
  22.4345815  13.5186483  24.6943841  22.6920798  13.7333869  25.4029051
  22.0362099   6.1101665  19.3762340  21.2238781   5.8027555  19.4575513
  22.4952034   5.6300665  19.9405052  21.9842484   5.9938157  19.4716934
  19.1315607   7.5161736  24.1591043  19.6015238   8.1403853  24.5458917
  19.1777487   6.8478712  24.7184257  19.2083482   7.5096417  24.2991114
  22.6072093  14.8785233  20.7706485  23.2451814  14.3845429  20.4368942
  21.9646185  14.8062633  20.1858712  22.6066320  14.7944241  20.6348840
  22.6626350  15.5705041  17.4111842  23.4518728  15.2194106  17.5313924
  22.8369948  16.3841430  17.1488476  22.8046631  15.6390898  17.3899710
  14.2754676  14.1244887  18.4209326  14.1675031  14.1346949  19.2871384
  14.4850457  14.9499667  18.2314280  14.2904787  14.2485962  18.5213418
  28.4118890  11.2063299  16.8808542  28.4702013  11.6549948  17.6268519
  27.7785357  11.6162112  16.4438622  28.3270185  11.3337034  16.9261091
  22.0517984  16.8266841  13.3163288  21.8537673  17.3157655  12.6219500
  21.4305695  17.0308082  13.8947422  21.9305549  16.9283379  13.2986512
  23.9691786  10.3930993  18.8508537  24.6925985   9.9403520  18.6719557
  23.7041748  10.6735659  18.0680865  24.0373059  10.3681962  18.7087252
  15.7823518  10.7319454  22.4316423  14.9319148  10.8691168  22.5674068
  15.9451645   9.9983232  22.8764125  15.6807381  10.6433555  22.5172023
  26.4027100   9.3557404  17.3539087  26.9944940   9.9954655  17.3857285
  26.8386095   8.6580441  17.6431153  26.5545531   9.3475754  17.4019919
  18.2320490  13.7774776  17.9796980  17.7245581  14.3310623  18.4237611
  17.9347136  13.8383066  17.1615755  18.1125375  13.8681088  17.9245437
  17.4762975  18.7099335  14.8853987  17.2528630  17.9518164  15.2538014
  16.9872819  18.7397356  14.1634427  17.3706424  18.6021559  14.8330728
  19.5333965  12.8781067  22.4365921  19.4929819  12.2330744  21.8511077
  20.3457283  12.8217684  22.7491333  19.6477118  12.7740034  22.3962870
  19.0980744   4.4302248  21.4317934  19.6552174   4.2016058  20.7996400
  18.7741809   5.1907914  21.1553147  19.1327154   4.5086085  21.2974431
  16.8163861   7.5169901  22.3969941  17.5675188   7.8321578  22.7109496
  17.0086437   7.3149072  21.5703863  16.9555275   7.5337283  22.3213337
  23.4541822  11.0744657  15.9807072  23.8796894  10.5519079  15.4277497
  23.0898742  11.6725494  15.4595695  23.4628425  11.0854884  15.8216082
  13.0895902  19.3708874  14.7404418  13.4042461  20.1845263  14.7482200
  13.4989315  18.9859093  15.4086577  13.1964000  19.4337577  14.8408510
  22.1297406  16.3980235  24.4900302  22.2394372  15.6088795  24.8457049
  22.4588303  16.3086171  23.6874640  22.1949812  16.2686087  24.4242693
  20.6794368  14.5796855  19.0735923  20.1315314  13.9554739  18.8055988
  21.1407397  14.7691127  18.3580002  20.6661577  14.5155905  18.9286354
  20.2452694  15.5847928  15.6045264  21.0651068  15.4410894  15.8661559
  19.9646772  16.2094127  16.1461702  20.3249437  15.6558280  15.7233203
  36.7166344  23.2412780   8.5688140  36.6860349  24.0957416   8.7406410
  37.3147693  22.9408072   9.1274284  36.8003502  23.3229276   8.6762942
  29.9166029  22.3288431  13.3241071  29.0603925  22.4896929  13.3750187
  29.9633683  21.4580495  13.3446132  29.7965141  22.2239233  13.3347137
  24.3007169  31.8651149   9.0878302  23.5490069  31.4866687   8.8594347
  24.7493181  31.8969582   8.3397112  24.2556836  31.8136756   8.9435804
  29.7532129  32.2876518   4.5163849  29.4183497  32.9653440   4.0808071
  30.2658999  31.8981829   3.9280721  29.7797710  32.3301096   4.3650641
  29.2936420  34.2390787  10.4574961  29.6775800  34.8077685   9.9179736
  29.2295561  33.5140297   9.9780777  29.3409847  34.2166250  10.3068823
  32.7617850  24.3880475  15.9672722  33.3073810  25.0665561  16.0266692
  32.7034727  24.2467936  15.1074304  32.8333765  24.4672476  15.8484783
  25.8791925  31.8769541  11.3541075  25.9802288  31.0669895  11.6638202
  25.2833670  31.7826487  10.7240753  25.8064464  31.7434569  11.3067313
  34.5382919  25.8165082   6.8406450  34.4222445  26.5672768   7.2698588
  35.3338806  25.5589035   7.0902537  34.6387508  25.8899929   6.9410542
  25.7192665  36.7947130  12.7555931  26.3630120  37.2360294  13.1452089
  26.0448920  35.9900556  12.6686189  25.8624493  36.7412325  12.8001408
  19.0756969  27.8989827  10.9793408  18.8407154  27.0657480  10.8725677
  19.2142610  28.1794493  10.1654609  19.0612632  27.8173331  10.8435763
  21.3747057  20.0675558  13.8777716  20.7552089  19.4768205  13.7087731
  21.2730921  20.6586993  13.2442039  21.2684732  20.0679640  13.7582706
  26.4213245  29.8059105   8.1275792  26.7429086  30.3464312   7.5237100
  27.0685341  29.2355876   8.2598082  26.5639300  29.8018280   8.0582828
  28.4714953  21.8075100   8.2110179  29.1695117  21.9863227   8.7031642
  28.7867285  21.2845439   7.5880568  28.6210290  21.7568872   8.1912189
  21.1016190  23.6127840  16.1221285  20.9774887  24.1990285  16.7571104
  21.7534474  23.1188035  16.4233560  21.1789839  23.6266644  16.2607214
  28.6602888  28.1945545   8.1989971  29.0996523  27.5862645   8.6444743
  28.5107551  27.8152918   7.4275436  28.7024354  28.0484016   8.1509138
  26.1274531  26.7889557  15.4008796  26.7723533  26.2962000  15.0819745
  26.3676308  26.9314343  16.2274874  26.2585116  26.7366999  15.4758329
  28.6660622  29.6344462  15.0515689  28.9483865  28.8395868  14.8302444
  29.3946783  30.1125050  15.0720750  28.8150186  29.5879059  15.0218704
  26.6441816  17.1767496  12.2931454  26.3145146  17.6278640  11.6235152
  25.9686818  17.0983660  12.8404460  26.4952252  17.2318632  12.2754677
  32.2612225  26.5472726   5.1520740  32.1763520  27.4033693   5.2970309
  32.7496608  26.2717050   5.8202899  32.3201122  26.6330047   5.2722821
  33.8518224  13.1653019  10.5381064  33.5371665  13.8556498  10.9701487
  33.3345166  13.1097802   9.8366565  33.7282694  13.2587908  10.4978013
  33.1930658  23.1657520   6.6518475  32.6642129  23.3817154   7.3115781
  33.7155678  23.8593659   6.5719444  33.1919111  23.3000657   6.7374074
  38.6478711  28.7403825  12.0251519  37.8176414  28.9514468  12.1884936
  38.5987963  27.9140879  11.7493803  38.5185446  28.6493431  12.0088885
  20.6374294  32.7775498  12.2549614  20.1541872  33.5025988  12.2309198
  21.4497612  33.0751628  12.3659772  20.6865042  32.9277852  12.2676894
  26.7088448  31.5707679  14.8599429  26.1915390  31.2115094  14.2560737
  27.4062839  31.0469853  14.8705495  26.7354029  31.4405367  14.7729688
  27.9322500  31.3033653  19.8033264  27.3693335  30.8906263  20.3272925
  28.6943523  31.2286558  20.2226407  27.9616949  31.2311053  19.9426264
  38.1432669  21.3874225  15.8201941  37.3061090  21.4576412  16.0549535
  38.1120900  21.3898720  14.9476243  38.0150951  21.3984452  15.7261489
  24.5397398  23.5307261  21.5350309  24.7117902  23.4213156  22.3835591
  25.0766755  24.1761666  21.2981502  24.6442402  23.6099263  21.6255406
  22.8169267  29.4838026  11.9155502  23.6558166  29.7160959  11.9629264
  22.8481036  28.6142337  11.8462538  22.9450984  29.3894972  11.9120147
  23.4421970  29.9038901  16.2168808  23.9820195  29.7610032  16.8872180
  22.7591916  30.3035652  16.5852834  23.4214124  29.9418572  16.3703230
  32.8662855  25.5829902  11.4113832  33.6220370  26.0161416  11.4502741
  32.9725179  24.9334672  11.9848468  32.9933025  25.5507386  11.5011858
  35.9043026  29.4103179  12.1616235  35.4678258  29.4139921  12.9175207
  35.5705941  30.0908678  11.7295813  35.7905646  29.5115635  12.2097068
  18.8459115  26.1239192  16.3703229  18.5797530  25.3078309  16.5294220
  18.8597679  26.1692348  15.4998745  18.8083837  26.0096097  16.2656711
  35.8240509  16.4517007  14.4045663  36.4666417  16.5215111  14.9907578
  36.0763529  15.7846230  13.9025205  35.9562641  16.3643356  14.4172942
  23.5957721  19.6617570  19.0170237  22.9029518  19.1914550  19.2630969
  24.2118049  19.4355875  19.5911944  23.5842251  19.5584702  19.1379390
  30.6342493  33.3621614  17.1325841  29.8357739  33.1221114  17.3899710
  31.0828504  33.4136007  17.8792889  30.5817104  33.3344005  17.2810765
  39.0387372  26.1284099  11.0535872  39.7003806  25.5674767  10.9531781
  38.3978784  25.6336130  11.3788564  39.0416240  25.9720508  11.0868213
  29.9264180  29.4254230   3.3616796  30.3415328  29.0939254   2.6701291
  29.0956109  29.1923133   3.2336932  29.8652189  29.3425486   3.2407643
  19.2552529  26.9097971  13.6514974  19.0728102  26.8844857  12.7987266
  19.9902198  27.3796909  13.6903882  19.3366592  26.9759334  13.5312892
  35.3252203  27.1449481  10.7947861  35.5607792  27.2894680   9.9674712
  35.4741766  27.9091889  11.1879375  35.3818006  27.2788536  10.7311465
  22.3198280  23.6282974  20.1597082  23.0438253  23.6136005  20.6461977
  22.4214417  24.3378330  19.6619050  22.4416489  23.7307677  20.1575869
  37.1542660  25.9851147   8.6317465  37.4850877  26.5178787   8.0257560
  37.7275748  26.0390035   9.2879416  37.2876339  26.0720716   8.6395247
  32.3674549  23.8316050   9.3141045  32.4621403  24.5705344   9.7680671
  31.7433392  23.4033525   9.7475610  32.2883579  23.8777371   9.4449193
  30.6227022  27.0102263  19.9631326  31.1965884  26.3729507  20.1179890
  30.5441826  27.0106345  19.0940984  30.6960257  26.9167374  19.8577737
  19.2223439  23.7891472  13.8014040  19.7996942  23.6527923  14.4406286
  18.5237501  23.3327256  14.0559625  19.2044460  23.7013738  13.9336330
  25.9790741  25.4425528  12.0152523  25.7209985  24.6097263  11.9883823
  26.0339224  25.6683141  11.1745024  25.9490519  25.3523299  11.8872660
  31.0591791  17.5453978  12.1156616  30.3548118  17.0563164  12.2740535
  31.1076766  17.5576453  11.2445061  30.9621843  17.4743626  12.0095956
  24.9525453  22.9963290  12.5017418  24.3775045  23.1555459  13.1381379
  24.5761130  22.3598699  12.0385869  24.8128266  22.9261103  12.5271977
  28.6198742  21.4686639  17.3609797  28.2313175  21.0440857  16.7061988
  27.9553440  21.7168789  17.8686823  28.4645670  21.4425361  17.3397665
  38.2622011  21.2261644  10.1357627  38.0058576  20.4141586   9.9455509
  39.1051325  21.2339211   9.9087814  38.3488036  21.1073642  10.0742444
  32.4425103  15.1661268  14.8733781  32.8235615  14.4839439  15.2601655
  31.6388388  14.8770870  14.6909445  32.3801565  15.0228317  14.9037837
  29.7237680  25.6985244   5.5586604  30.5378319  25.9900137   5.4469375
  29.6596821  25.0445106   4.9844897  29.8340419  25.6450439   5.4575441
  25.5945588  29.1706762  10.6858916  26.2319535  28.9318509  11.2310709
  26.0200660  29.3743920   9.9512076  25.7521755  29.1657772  10.6576073
  20.2858231  31.4095098  14.5693219  20.3262376  31.6809949  13.7412999
  20.8452755  31.9337006  14.9851007  20.3741577  31.5270853  14.5085108
  26.4016944  17.6715466  24.7396389  26.0870385  18.4415029  24.4765952
  26.0806876  17.1085723  24.1548616  26.3075863  17.7025735  24.6137739
  36.9683591  28.1655689  16.0344474  36.6629408  28.8983746  16.3957789
  36.2489807  27.7593618  15.7537260  36.8170933  28.2137422  16.0457611
  27.9767060  29.6479184  12.3652702  28.0506069  29.4854356  13.2194552
  28.7936567  29.8369374  12.1213184  28.1083419  29.6515927  12.4550728
  42.6685383  24.8048690  15.3612818  42.6009883  24.8244649  14.4915405
  42.6541045  25.6479017  15.5868489  42.6564140  24.9322424  15.2665295
  21.7372817  29.9937047   9.3947145  20.9110935  30.2398784   9.2681424
  21.7984808  29.9149128  10.2609204  21.6246984  30.0181996   9.5036090
  33.0781730  16.2083847  18.6853907  33.8235322  16.0193658  18.2717333
  32.6619034  16.7342085  18.1267764  33.1266704  16.2585993  18.5418481
  26.5171646  32.6113927   7.0966175  26.8069944  32.2202909   6.3725402
  27.2475127  32.7930632   7.5371451  26.6678530  32.5807741   7.0548982
  40.4544000  23.5793076  13.6359412  41.0051922  22.9461145  13.8756504
  40.4388116  24.1108469  14.3274917  40.5329197  23.5642024  13.7738271
  27.1066391  27.4131673  18.1819306  26.6078085  28.1247441  18.2604194
  27.9166616  27.7332340  18.1437468  27.1522498  27.5658522  18.1875874
  24.4577562  34.5881310  10.1626325  24.2377857  34.2978664  10.9552992
  24.2372084  33.9296265   9.6344237  24.3925156  34.4481018  10.2015234
  23.3694509  26.6754626  12.4282027  23.0807757  26.0492097  12.9627754
  24.2377857  26.6174914  12.4946707  23.4554761  26.5742170  12.5172981
  34.1572407  21.8189410  12.7464009  33.8137173  21.0979745  13.0971258
  34.2565449  21.6103261  11.9042367  34.1214449  21.6813613  12.6735689
  26.6245517  35.9610700   8.9457017  27.2769575  35.4287142   9.1748043
  25.9271126  35.6079352   9.3324891  26.6176235  35.8300223   9.0369185
  23.5726782  28.3149877   8.3524392  24.3272750  28.6962916   8.5659854
  22.9797395  28.7661021   8.8071088  23.5963496  28.4378705   8.4507270
  34.6185436  28.2815114   8.2887997  35.1843468  28.9408323   8.2046540
  33.9713339  28.6264812   8.7604399  34.6064192  28.4297055   8.3460753
  26.0333449  20.2712718  23.4781604  25.2233225  20.5770497  23.3671446
  26.5108136  20.9918300  23.5934188  25.9836928  20.4227319  23.4788675
  24.8925009  29.4858439  13.7264507  24.3705762  29.6258730  14.4116372
  25.2799029  28.7269103  13.9166624  24.8728710  29.3943962  13.8565584
  31.0892014  31.2253898   7.7125076  30.8478690  30.4921758   7.3052141
  31.2693347  31.7740755   7.0591409  31.0799638  31.1976289   7.5555299
  26.3191334  26.5162458   9.1245998  26.1234117  27.1237192   8.5306301
  26.5425680  25.8230402   8.6437672  26.3225975  26.5039983   8.9662079
  24.7169864  23.4017196   9.2426867  25.4392516  23.5658354   8.7830673
  24.2377857  24.1226860   9.1366206  24.7533595  23.5315425   9.1592481
  32.6763372  19.7380994  14.6223551  31.8374473  19.7642273  14.3861815
  32.7467739  20.3851730  15.2028898  32.5631766  19.8377120  14.6732668
  22.3677481  25.8075268  18.3481006  22.8798578  26.0859521  17.6989766
  22.0813824  26.5464562  18.7143819  22.4012344  25.9577622  18.3070884
  31.1232650  16.6366371   9.3551167  31.8259003  16.4374120   8.8771126
  30.8576839  15.8642314   9.6620011  31.1879283  16.4929337   9.3296609
  36.5520896  24.9448981  11.9084793  36.4654870  25.1004407  12.7619572
  36.0971376  25.5887057  11.5344198  36.4724153  25.0624736  11.9791900
  25.8861207  17.9001656  18.4082048  25.6944404  17.9156791  19.2581472
  26.7359803  18.0965331  18.3848703  25.9836928  17.9316008  18.5305343
  20.2708120  20.4292638  16.3865864  20.1293611  19.5776579  16.5110372
  20.5548683  20.4721299  15.5628070  20.2915966  20.3092388  16.2833489
  30.4246712  22.2659728  10.5310353  30.1781426  22.1855479  11.3647142
  30.7531835  21.4813196  10.3372880  30.4367956  22.1385993  10.6257876
  34.3194761  28.9743087  14.3197134  34.1809120  29.6724133  14.8245876
  33.5394759  28.8191744  13.9633316  34.1837988  29.0543254  14.3423408
  26.3843739  25.0016447  19.9433336  26.5287115  25.5817655  19.3076446
  26.7319388  25.3792743  20.6483190  26.4571201  25.1437151  19.9532331
  28.5563657  24.2006615  17.7258467  27.8086971  24.3937630  17.3206745
  28.7105182  23.3751835  17.4882589  28.4686084  24.1071727  17.6303873
  25.4571494  33.1919219  16.8094363  25.6061058  32.6322134  16.1567767
  26.2371496  33.2711220  17.1926881  25.5945588  33.1204784  16.7691312
  35.8148134  28.3321341   5.0813633  35.4354942  27.5458479   5.0742923
  35.1514379  28.8808198   4.9385277  35.6606608  28.2966165   5.0594430
  27.9824795  33.3633861  18.0878853  27.9068466  32.6942672  18.6429642
  27.9114654  34.0651650  18.6019520  27.9605402  33.3678769  18.2455702
  28.7965434  18.0957166  18.6153871  29.2538048  18.8281140  18.7426663
  28.8721762  17.6723631  19.3741127  28.8756403  18.1414404  18.7454948
  21.0398425  18.3422986  19.7043315  20.5040614  17.7303344  20.0204082
  21.1016190  18.9171122  20.3576981  20.9694057  18.3369913  19.8478742
  33.2692760  11.2747041  12.4847714  33.3876328  11.7323504  11.7515017
  33.0954935  10.4692302  12.1983932  33.2611931  11.2240813  12.3348648
  28.6395042  31.8834860   8.9202459  29.4044933  31.6144504   8.5985124
  28.5373132  31.3984871   9.6372522  28.7376537  31.7724425   8.9782287
  26.6747812  20.0859270  15.4595695  25.8843886  19.9050730  15.7813031
  27.0708434  19.3086222  15.4425990  26.6164688  19.9446731  15.5048244
  32.0591498  27.7201700  13.1855141  31.3836500  27.4886932  13.6868528
  32.0683874  27.1122883  12.5597246  31.9610002  27.5960625  13.1671293
  29.1885642  22.5619529  19.9419194  29.1244783  23.4229485  19.8139331
  29.3282830  22.2451522  19.1414745  29.2001112  22.6419696  19.8047407
  34.0608232  30.5766832   5.4165319  34.1428070  31.3833818   5.0926770
  34.5457975  30.5962792   6.1406093  34.1445390  30.6987495   5.4752218
  27.8704736  25.2551668  14.0835397  27.4466985  25.4556167  13.3474415
  27.6949591  24.4080516  14.1959697  27.7815616  25.1600450  13.9909087
  27.3716429  36.7702181  16.5456854  27.8612359  36.0712970  16.3632519
  26.8000661  36.4726051  17.1332912  27.3600959  36.6228405  16.6057895
  23.1587181  25.7503720   9.5163370  23.3151800  25.6850522  10.3719362
  23.4987774  26.5252272   9.3042049  23.2320416  25.8552918   9.6117964
  29.6966325  25.1261603   8.3856733  30.2381871  24.6231984   8.8495353
  30.0112884  25.0726798   7.5746218  29.8230722  25.0441024   8.3340545
  27.8652775  30.5178955   5.6696761  27.9345595  29.6593493   5.8089761
  28.6441230  30.7350836   5.3415785  27.9905625  30.4231819   5.6413918
  30.8455595  20.0197908  18.4379033  31.0597564  19.3808822  17.8842387
  30.2289494  20.4643732  18.0086895  30.7860924  19.9908051  18.2929464
  32.2560263  32.9416656   9.8833254  31.8640054  32.6383371   9.1656120
  32.4113335  33.7785746   9.6938208  32.2213852  33.0200493   9.7489751
  33.0094683  21.6286973  19.3762340  32.1971364  21.3212863  19.4575513
  33.4684617  21.1485973  19.9405052  32.9575067  21.5123465  19.4716934
  32.4199937  29.5066645   9.8239285  32.0614592  29.6781288  10.6003317
  31.9338648  29.9679851   9.2667283  32.2958634  29.6005616   9.8564554
  30.2370323  13.1297843  13.4266376  29.3663881  13.1036565  13.3799685
  30.4910665  12.9575036  12.6092222  30.1463883  13.1007987  13.2986513
  30.1048190  23.0347044  24.1591043  30.5747821  23.6589161  24.5458917
  30.1510070  22.3664020  24.7184257  30.1816066  23.0281725  24.2991114
  27.2619464  15.1404072  14.8839846  26.7457952  14.4484263  15.0091425
  26.7013393  15.8074849  14.8302445  27.1025977  15.1367329  14.8945912
  29.3311697  15.6797032  16.7132699  28.9443450  15.7046063  17.4946229
  28.8444635  15.1138711  16.2607216  29.2024206  15.5992783  16.7620603
  35.3061677  22.2459687  15.3372401  34.8789285  22.1586035  14.5820501
  34.6687730  22.3537462  15.9227245  35.1491284  22.2492347  15.3117843
  28.9968839  12.5664017  19.0042959  29.6261957  13.1024317  18.7264029
  29.1654702  12.4741376  19.8556525  29.1146634  12.6325380  19.0891487
  28.7982754  17.3535212  21.2769370  29.6256183  17.0820361  21.3327985
  28.8190600  18.1496054  21.6333189  28.9235604  17.4314966  21.3384553
  23.3752244  24.4999075  14.4639631  22.5340250  24.4002949  14.6718525
  23.5842252  25.2694555  14.8153952  23.2816936  24.5991118  14.5466946
  20.8527811  22.1218612  12.2924382  20.4584508  22.1961624  11.5174491
  20.2967928  22.5076558  12.8432744  20.7130623  22.1900386  12.2592042
  32.4892757  15.0999906  11.9728261  32.6942351  15.0322214  12.8185258
  32.1619181  15.9058727  11.9049438  32.4708005  15.2085846  12.0887916
  27.1868909  22.4280474  13.7137229  26.8832046  21.8736462  14.3147636
  26.4848329  22.6072684  13.2265263  27.0385118  22.3725256  13.7306934
  25.2487260  29.6430195  18.4209326  25.1407614  29.6532257  19.2871384
  25.4583041  30.4684975  18.2314280  25.2637371  29.7671270  18.5213418
  35.7426445  15.6531670  11.4531026  35.1300759  16.1402072  11.8384758
  35.8390620  14.9775161  11.9968677  35.6664343  15.6249979  11.5909884
  23.2661052  26.8942837  15.8831264  22.6748985  27.5352335  15.8534279
  24.0282075  27.3180454  15.8562563  23.2909312  27.0518676  15.8746411
  23.6621674  18.0544835  16.5499282  24.1223156  18.1283764  17.2874405
  23.7077781  18.8526089  16.1999103  23.7372230  18.1838982  16.6072038
  25.3105024  18.7211530  21.1171309  24.9190589  18.0744877  21.5527086
  25.4790887  19.3122965  21.7365564  25.2775934  18.7125798  21.2734015
  39.3851473  26.7248607  16.8808542  39.4434597  27.1735256  17.6268519
  38.7517941  27.1347420  16.4438622  39.3002768  26.8522342  16.9261091
  33.0250568  32.3452149  13.3163288  32.8270256  32.8342963  12.6219500
  32.4038279  32.5493390  13.8947422  32.9038132  32.4468687  13.2986512
  27.0858546  24.1137046   7.6573533  27.8300591  24.5011322   7.8956483
  27.2319242  23.2694471   7.8214021  27.2169131  24.0467518   7.7167502
  29.0038122  15.9087305  12.6905394  28.1574167  16.0810112  12.5646744
  29.0009254  15.1036648  13.0271222  28.8785272  15.8148333  12.7216521
  30.0736422  19.6862519  13.5567452  29.5996376  19.1604281  14.0672763
  30.4454558  19.1391992  12.9882314  30.0586311  19.5278516  13.5482599
  20.4509452  21.6834026  18.9250998  21.3135065  21.5829735  18.8388328
  20.1201235  21.1028735  18.3636570  20.5294649  21.5825652  18.8296404
  36.3373153  24.7464895  14.9674233  36.0971375  23.9071310  14.9716659
  36.8165160  24.8265061  15.6915006  36.3725336  24.6346294  15.0749035
  38.3378340  21.5266352  12.9203492  38.0988110  21.4862186  12.0824276
  38.5012241  22.3737504  13.0469213  38.3268643  21.6458437  12.8156974
  34.9424370  25.9116301  18.8508537  35.6658569  25.4588827  18.6719557
  34.6774332  26.1920967  18.0680865  35.0105643  25.8867270  18.7087252
  23.8111238  20.5076475  15.5861416  23.1864308  20.5194867  14.9787369
  23.4756833  20.9836650  16.2352656  23.6696730  20.5794992  15.5917985
  20.5236914  28.5676935  17.0265180  19.9936838  27.8769374  17.0760155
  20.7962007  28.5587120  16.1977889  20.4861636  28.4644067  16.9112596
  31.5557004  29.1502637   5.7502863  32.2791203  29.6160750   5.6067436
  31.1157595  29.2176247   5.0000460  31.5972696  29.2286474   5.6187644
  30.7243159  26.0100179  17.0003552  30.1100152  25.4658230  17.2952187
  31.2410444  25.4964416  16.5209368  30.7098822  25.8536588  16.9727780
  29.9639456  27.0804449  14.7347851  29.5367064  26.4554168  14.3013286
  29.9564401  26.7979371  15.5606858  29.8998598  26.9457230  14.7927678
  23.0801984  22.1169622  17.8036284  23.2395470  21.3612947  18.2088006
  22.8994877  22.6660562  18.4577022  23.0767342  22.0863436  17.9598990
  31.0222286  14.2830858  18.3587074  30.5262848  14.4794532  17.6678641
  31.7791349  14.6823526  18.1875876  31.0609111  14.3708592  18.2307211
  28.2925166  17.9573204  14.9490385  28.3167653  17.4233316  14.2603165
  28.5436640  17.4490513  15.6115975  28.3335085  17.8034108  14.9455029
  15.8032756  25.2404699  14.3833529  15.6976205  25.1951543  13.5185613
  15.0532976  25.5858479  14.6647813  15.6768359  25.2845607  14.2970858
  24.5726488  16.6844022  14.3296129  24.6124860  17.1853229  15.0430836
  23.7476153  16.7754416  14.0602052  24.4566014  16.7725838  14.3946667
  26.7556101  26.2504762  22.4316423  25.9051732  26.3876476  22.5674068
  26.9184229  25.5168540  22.8764125  26.6539965  26.1618863  22.5172023
  25.9940852  23.2004532  16.6270028  25.1632781  23.3678350  16.4205276
  25.9392369  22.8240483  17.4118913  25.8630267  23.1694263  16.7118556
  23.8024635  16.6913425  22.2626439  24.4277338  16.1475558  22.5355871
  23.3475115  16.2108342  21.6934229  23.8272896  16.5402906  22.2188032
  37.3759684  24.8742712  17.3539087  37.9677524  25.5139963  17.3857285
  37.8118678  24.1765749  17.6431153  37.5278115  24.8661062  17.4019919
  29.2053074  29.2960084  17.9796980  28.6978165  29.8495931  18.4237611
  28.9079720  29.3568374  17.1615755  29.0857959  29.3866395  17.9245437
  31.3715256  17.6613404  16.8221643  31.7970327  17.2085930  16.2105170
  30.7572249  17.1073475  17.0986431  31.3443901  17.5127380  16.7726669
  31.8160854  33.2123342   5.9100924  31.0990164  33.0384204   5.4448161
  32.4667591  32.9775914   5.3776410  31.8062704  33.1519134   5.7630142
  34.4008825  22.0887931   9.6542229  33.7300015  22.6317633   9.5255295
  35.0948575  22.5582786   9.4123924  34.4037693  22.2386202   9.5997757
  28.4495559  34.2284643  14.8853987  28.2261213  33.4703472  15.2538014
  27.9605402  34.2582664  14.1634427  28.3439008  34.1206867  14.8330728
  34.5636953  18.5443814  12.5632602  34.9164563  18.1173537  13.2378401
  33.7051754  18.4594658  12.6933679  34.4886397  18.4688555  12.6827613
  23.2620638  21.1751334  10.6215449  22.5432627  21.5915466  10.8888312
  23.6333000  21.7405573  10.0707087  23.2112569  21.3200615  10.5798256
  32.5620218  21.8079183  16.5117445  32.5418146  21.6262478  17.3652223
  32.6099419  22.6791201  16.4877028  32.5654859  21.9095721  16.6340739
  30.5066548  28.3966375  22.4365921  30.4662403  27.7516052  21.8511077
  31.3189866  28.3402992  22.7491333  30.6209702  28.2925342  22.3962870
  27.0974016  34.4485101  12.3391072  26.6834414  33.7859231  11.9494914
  27.7821390  34.5962959  11.8186766  27.1372387  34.3725759  12.2047569
  30.4639310  33.6075186  13.0914689  30.0655593  33.7177456  12.3235509
  29.8490529  33.8157252  13.6741248  30.3138199  33.6548754  13.0645988
  35.9961013  13.6662226  13.4916915  35.4891877  12.9591366  13.4238092
  36.7928446  13.3355415  13.6217991  36.0388252  13.5135377  13.5015910
  31.9125028  20.1728838   9.3890579  31.6838722  20.1961540   8.5468937
  32.1723105  19.3486305   9.5085589  31.9171217  20.0544918   9.2815776
  26.1944257  22.0263311  18.9915679  25.6823160  21.4184494  19.3500710
  26.0223753  22.7419904  19.4589654  26.0933894  22.0426611  19.1131902
  21.0409972  20.4700887  21.6418040  20.8712562  21.1302261  21.0966247
  20.5975922  20.6807448  22.3630530  20.9509305  20.5986869  21.6679670
  24.9669791  18.7105385  10.6844774  25.4427157  19.0722464  10.0494955
  24.4658391  19.3661852  10.9644917  24.9635150  18.8599573  10.6321515
  38.1981153  28.1827153   6.4757779  38.5814758  28.9318509   6.7055876
  37.4025266  28.4292972   6.2169768  38.1374935  28.3296846   6.4715353
  30.0713327  19.9487556  21.4317934  30.6284757  19.7201365  20.7996400
  29.7474392  20.7093222  21.1553147  30.1059737  20.0271393  21.2974431
  17.9412036  23.3747752  16.9006530  17.3938756  22.7048398  17.0187399
  18.7304414  23.0077600  16.9649998  17.9764220  23.2212739  16.9275231
  27.7896445  23.0355209  22.3969941  28.5407772  23.3506886  22.7109496
  27.9819021  22.8334380  21.5703863  27.9287859  23.0522591  22.3213337
  34.6381735  19.1628776   9.6393737  34.6375961  19.0077432  10.4978013
  34.4337915  20.0091763   9.5835122  34.6081513  19.2649396   9.7581676
  16.6999006  22.5868560  14.0552553  16.5220767  22.1345169  14.7807469
  16.4118028  23.3894721  14.2391031  16.6311959  22.6391118  14.1896056
  32.3622587  23.8426277  13.2929944  32.8576252  23.1249272  13.2533964
  31.5522362  23.5397075  13.1784431  32.3166480  23.6923924  13.2703670
  27.8081198  27.6924091   5.4426948  26.9992521  27.3690764   5.3960258
  28.3156107  26.9857313   5.3755197  27.7630865  27.5405407   5.4257243
  18.4371476  25.1196284  11.1674312  17.5716995  25.1081974  11.0557084
  18.5370291  24.9326507  12.0145452  18.3245642  25.0902345  11.2763257
  34.4274406  26.5929965  15.9807072  34.8529477  26.0704387  15.4277497
  34.0631325  27.1910802  15.4595695  34.4361008  26.6040192  15.8216082
  24.0628485  34.8894182  14.7404418  24.3775044  35.7030571  14.7482200
  24.4721899  34.5044401  15.4086577  24.1696583  34.9522885  14.8408510
  31.0153005  30.3064229  12.3108230  31.4864183  31.0204492  12.4798215
  31.3513184  29.7062979  12.8468099  31.1348120  30.3235693  12.4140606
  27.9322500  15.0791700  19.2666325  28.0650406  14.2822693  19.5947300
  28.3167653  15.6058103  19.8464600  28.0078829  15.0391616  19.4009828
  31.6526951  30.0982163  19.0735923  31.1047897  29.4740047  18.8055988
  32.1139980  30.2876435  18.3580002  31.6394161  30.0341213  18.9286354
  31.0054855  12.0022026  15.8647418  30.2000819  11.8919755  16.1815256
  30.8761591  12.1034482  15.0077284  30.8674988  12.0005696  15.7855458
  34.4620816  18.1667518  16.4587115  33.8783805  18.6676724  16.0464682
  34.7825110  17.6597074  15.8251438  34.4233991  18.1659353  16.3045622
  25.5910947  15.0750875  17.5144218  26.1355360  14.7342002  18.1048560
  25.6447882  15.9336336  17.6565503  25.6800066  15.1506134  17.6226092
  21.4041506  28.8367291  14.3883026  22.0086363  28.7963125  13.7596847
  21.1968818  29.6838443  14.4187082  21.4630403  28.9555293  14.2999143
  31.2185278  31.1033236  15.6045264  32.0383651  30.9596202  15.8661559
  30.9379355  31.7279435  16.1461702  31.2982021  31.1743588  15.7233203
  16.6392788  27.8201908  14.2581949  16.5417066  27.0098180  14.5672006
  17.4221658  27.7993702  13.8728218  16.7408924  27.6968998  14.2468812
  47.6898928  38.7598088   8.5688140  47.6592932  39.6142724   8.7406410
  48.2880277  38.4593380   9.1274284  47.7736086  38.8414584   8.6762942
  40.8898613  37.8473739  13.3241071  40.0336508  38.0082237  13.3750187
  40.9366267  36.9765803  13.3446132  40.7697724  37.7424541  13.3347137
  35.2739753  47.3836457   9.0878302  34.5222652  47.0051995   8.8594347
  35.7225764  47.4154890   8.3397112  35.2289419  47.3322064   8.9435804
  40.7264712  47.8061826   4.5163849  40.3916081  48.4838748   4.0808071
  41.2391583  47.4167137   3.9280721  40.7530294  47.8486404   4.3650641
  40.2669004  49.7576095  10.4574961  40.6508383  50.3262993   9.9179736
  40.2028145  49.0325605   9.9780777  40.3142431  49.7351558  10.3068823
  43.7350434  39.9065783  15.9672722  44.2806394  40.5850869  16.0266692
  43.6767310  39.7653243  15.1074304  43.8066348  39.9857784  15.8484783
  36.8524509  47.3954849  11.3541075  36.9534872  46.5855203  11.6638202
  36.2566254  47.3011795  10.7240753  36.7797047  47.2619877  11.3067313
  45.5115503  41.3350390   6.8406450  45.3955028  42.0858076   7.2698588
  46.3071389  41.0774343   7.0902537  45.6120092  41.4085237   6.9410542
  36.6925248  52.3132438  12.7555931  37.3362704  52.7545602  13.1452089
  37.0181504  51.5085864  12.6686189  36.8357077  52.2597633  12.8001408
  30.0489553  43.4175135  10.9793408  29.8139737  42.5842788  10.8725677
  30.1875194  43.6979801  10.1654609  30.0345216  43.3358639  10.8435763
  32.3479641  35.5860866  13.8777716  31.7284672  34.9953513  13.7087731
  32.2463504  36.1772301  13.2442039  32.2417316  35.5864948  13.7582706
  37.3945828  45.3244413   8.1275792  37.7161669  45.8649620   7.5237100
  38.0417925  44.7541184   8.2598082  37.5371883  45.3203588   8.0582828
  39.4447536  37.3260408   8.2110179  40.1427701  37.5048535   8.7031642
  39.7599869  36.8030747   7.5880568  39.5942873  37.2754180   8.1912189
  32.0748774  39.1313148  16.1221285  31.9507470  39.7175593  16.7571104
  32.7267058  38.6373343  16.4233560  32.1522423  39.1451952  16.2607214
  39.6335472  43.7130853   8.1989971  40.0729107  43.1047953   8.6444743
  39.4840134  43.3338226   7.4275436  39.6756937  43.5669324   8.1509138
  37.1007115  42.3074865  15.4008796  37.7456117  41.8147308  15.0819745
  37.3408892  42.4499651  16.2274874  37.2317700  42.2552307  15.4758329
  39.6393206  45.1529770  15.0515689  39.9216449  44.3581176  14.8302444
  40.3679366  45.6310358  15.0720750  39.7882770  45.1064367  15.0218704
  37.6174400  32.6952804  12.2931454  37.2877730  33.1463948  11.6235152
  36.9419402  32.6168968  12.8404460  37.4684836  32.7503939  12.2754677
  43.2344808  42.0658034   5.1520740  43.1496103  42.9219001   5.2970309
  43.7229191  41.7902358   5.8202899  43.2933705  42.1515355   5.2722821
  44.8250808  28.6838327  10.5381064  44.5104249  29.3741806  10.9701487
  44.3077749  28.6283109   9.8366565  44.7015278  28.7773216  10.4978013
  44.1663241  38.6842828   6.6518475  43.6374713  38.9002462   7.3115781
  44.6888261  39.3778967   6.5719444  44.1651694  38.8185965   6.7374074
  49.6211294  44.2589133  12.0251519  48.7908997  44.4699776  12.1884936
  49.5720547  43.4326187  11.7493803  49.4918030  44.1678739  12.0088885
  36.0562849  42.5806045   5.4525943  35.4720064  43.0856076   5.8591807
  35.6532944  42.3548432   4.7122535  35.9102153  42.6214293   5.4030968
  31.6106878  48.2960806  12.2549614  31.1274456  49.0211296  12.2309198
  32.4230196  48.5936936  12.3659772  31.6597625  48.4463160  12.2676894
  37.6821032  47.0892987  14.8599429  37.1647973  46.7300402  14.2560737
  38.3795423  46.5655161  14.8705495  37.7086613  46.9590675  14.7729688
  38.9055084  46.8218961  19.8033264  38.3425918  46.4091571  20.3272925
  39.6676107  46.7471866  20.2226407  38.9349532  46.7496361  19.9426264
  40.5140064  38.8271697   3.9294863  40.7536067  39.0349681   3.1170207
  40.8355905  38.0229206   4.0383808  40.5977221  38.7385798   3.8255417
  35.8230354  30.7565093   7.7754401  36.5776322  31.1243410   7.5371452
  35.6457888  31.1304647   8.5433581  35.9084832  30.8663281   7.8539290
  34.4651075  48.8116982  12.4069894  35.1671654  48.2968971  12.4642651
  34.3848558  49.1391133  13.2116769  34.5574835  48.7831208  12.5342686
  49.1165253  36.9059533  15.8201941  48.2793674  36.9761720  16.0549535
  49.0853483  36.9084028  14.9476243  48.9883535  36.9169760  15.7261489
  35.5129982  39.0492569  21.5350309  35.6850485  38.9398463  22.3835591
  36.0499339  39.6946974  21.2981502  35.6174986  39.1284571  21.6255406
  34.1787418  33.1635412   4.4732514  33.9962992  33.3807293   3.6473507
  35.0413031  33.2774424   4.5291129  34.2792008  33.2125310   4.3587001
  33.7901850  45.0023334  11.9155502  34.6290750  45.2346267  11.9629264
  33.8213620  44.1327645  11.8462538  33.9183568  44.9080280  11.9120147
  34.4154553  45.4224209  16.2168808  34.9552778  45.2795340  16.8872180
  33.7324500  45.8220960  16.5852834  34.3946707  45.4603880  16.3703230
  39.8587138  30.1661822   7.5081538  40.5873298  29.9877777   7.0619694
  39.9482031  31.0079902   7.7188716  39.9793800  30.2645701   7.4735056
  43.8395438  41.1015210  11.4113832  44.5952953  41.5346724  11.4502741
  43.9457763  40.4519979  11.9848468  43.9665609  41.0692694  11.5011858
  46.8775609  44.9288487  12.1616235  46.4410841  44.9325229  12.9175207
  46.5438525  45.6093986  11.7295813  46.7638229  45.0300943  12.2097068
  29.8191698  41.6424500  16.3703229  29.5530114  40.8263617  16.5294220
  29.8330263  41.6877655  15.4998745  29.7816421  41.5281405  16.2656711
  46.7973092  31.9702315  14.4045663  47.4399001  32.0400419  14.9907578
  47.0496113  31.3031538  13.9025205  46.9295224  31.8828663  14.4172942
  33.7249445  36.4409584   2.9854987  33.0107623  36.1547764   3.3977420
  34.2093414  36.7806210   3.6261375  33.6908809  36.4491234   3.1410622
  34.5690305  35.1802878  19.0170237  33.8762102  34.7099858  19.2630969
  35.1850632  34.9541183  19.5911944  34.5574835  35.0770010  19.1379390
  41.6075076  48.8806922  17.1325841  40.8090322  48.6406422  17.3899710
  42.0561088  48.9321315  17.8792889  41.5549688  48.8529313  17.2810765
  50.0119956  41.6469407  11.0535872  50.6736390  41.0860075  10.9531781
  49.3711368  41.1521438  11.3788564  50.0148823  41.4905816  11.0868213
  40.8996763  44.9439538   3.3616796  41.3147912  44.6124562   2.6701291
  40.0688693  44.7108441   3.2336932  40.8384772  44.8610794   3.2407643
  30.2285112  42.4283279  13.6514974  30.0460685  42.4030165  12.7987266
  30.9634781  42.8982217  13.6903882  30.3099176  42.4944642  13.5312892
  46.2984786  42.6634789  10.7947861  46.5340376  42.8079988   9.9674712
  46.4474350  43.4277197  11.1879375  46.3550590  42.7973844  10.7311465
  33.2930864  39.1468282  20.1597082  34.0170836  39.1321313  20.6461977
  33.3947000  39.8563637  19.6619050  33.4149073  39.2492985  20.1575869
  48.1275243  41.5036455   8.6317465  48.4583460  42.0364095   8.0257560
  48.7008331  41.5575343   9.2879416  48.2608922  41.5906024   8.6395247
  43.3407132  39.3501358   9.3141045  43.4353987  40.0890652   9.7680671
  42.7165976  38.9218833   9.7475610  43.2616162  39.3962679   9.4449193
  41.5959606  42.5287571  19.9631326  42.1698468  41.8914815  20.1179890
  41.5174410  42.5291653  19.0940984  41.6692841  42.4352682  19.8577737
  30.1956022  39.3076780  13.8014040  30.7729525  39.1713231  14.4406286
  29.4970084  38.8512564  14.0559625  30.1777044  39.2199046  13.9336330
  43.5930154  41.1950098   2.5477997  43.5110316  41.2652285   3.4132984
  44.2309874  41.7579842   2.3561738  43.6749991  41.2889069   2.6467947
  36.9523325  40.9610836  12.0152523  36.6942569  40.1282571  11.9883823
  37.0071807  41.1868449  11.1745024  36.9223103  40.8708607  11.8872660
  42.0324375  33.0639286  12.1156616  41.3280702  32.5748472  12.2740535
  42.0809349  33.0761761  11.2445061  41.9354426  32.9928934  12.0095956
  35.9258037  38.5148598  12.5017418  35.3507628  38.6740766  13.1381379
  35.5493713  37.8784007  12.0385869  35.7860849  38.4446411  12.5271977
  39.5931325  36.9871947  17.3609797  39.2045758  36.5626165  16.7061988
  38.9286024  37.2354097  17.8686823  39.4378253  36.9610669  17.3397665
  49.2354595  36.7446952  10.1357627  48.9791159  35.9326894   9.9455509
  50.0783909  36.7524519   9.9087814  49.3220620  36.6258950  10.0742444
  25.6714856  38.1588673  10.5161859  25.7575108  37.7820541  11.2975389
  26.2990653  37.7849119  10.0381817  25.7771407  38.0474155  10.5607336
  43.4157687  30.6846576  14.8733781  43.7968199  30.0024747  15.2601655
  42.6120971  30.3956178  14.6909445  43.3534149  30.5413625  14.9037837
  40.6970264  41.2170552   5.5586604  41.5110903  41.5085445   5.4469375
  40.6329405  40.5630414   4.9844897  40.8073003  41.1635747   5.4575441
  46.9179754  43.8996548  19.9716179  46.6818391  43.0684613  19.8528240
  47.5622983  43.8482155  20.5571023  46.9774425  43.7694236  20.0402073
  36.5678172  44.6892069  10.6858916  37.2052119  44.4503817  11.2310709
  36.9933244  44.8929228   9.9512076  36.7254338  44.6843080  10.6576073
  31.2590814  46.9280406  14.5693219  31.2994960  47.1995257  13.7412999
  31.8185338  47.4522314  14.9851007  31.3474160  47.0456161  14.5085108
  37.2080987  39.9094359   5.0233805  37.5926140  39.6902066   5.7750350
  36.9592607  40.7357305   5.1534881  37.2283060  39.9992505   5.1534881
  47.9416175  43.6840997  16.0344474  47.6361992  44.4169054  16.3957789
  47.2222390  43.2778926  15.7537260  47.7903517  43.7322730  16.0457611
  38.9499644  45.1664492  12.3652702  39.0238652  45.0039664  13.2194552
  39.7669150  45.3554682  12.1213184  39.0816003  45.1701234  12.4550728
  53.6417967  40.3233998  15.3612818  53.5742467  40.3429957  14.4915405
  53.6273629  41.1664325  15.5868489  53.6296723  40.4507732  15.2665295
  32.7105401  45.5122355   9.3947145  31.8843518  45.7584092   9.2681424
  32.7717392  45.4334436  10.2609204  32.5979568  45.5367304   9.5036090
  34.9281424  31.5791296  10.3542586  34.0603850  31.6513895  10.4200195
  35.2156629  32.3813375  10.5430561  34.8421172  31.7085443  10.3917352
  44.0514313  31.7269155  18.6853907  44.7967905  31.5378966  18.2717333
  43.6351618  32.2527393  18.1267764  44.0999287  31.7771301  18.5418481
  37.4904230  48.1299235   7.0966175  37.7802528  47.7388216   6.3725402
  38.2207711  48.3115940   7.5371451  37.6411114  48.0993049   7.0548982
  51.4276584  39.0978384  13.6359412  51.9784506  38.4646453  13.8756504
  51.4120699  39.6293777  14.3274917  51.5061780  39.0827332  13.7738271
  38.0798975  42.9316981  18.1819306  37.5810669  43.6432749  18.2604194
  38.8899199  43.2517648  18.1437468  38.1255082  43.0843830  18.1875874
  35.4310145  50.1066618  10.1626325  35.2110441  49.8163972  10.9552992
  35.2104667  49.4481573   9.6344237  35.3657739  49.9666326  10.2015234
  34.3427092  42.1939934  12.4282027  34.0540341  41.5677405  12.9627754
  35.2110440  42.1360221  12.4946707  34.4287344  42.0927478  12.5172981
  45.1304990  37.3374717  12.7464009  44.7869756  36.6165053  13.0971258
  45.2298033  37.1288569  11.9042367  45.0947033  37.1998921  12.6735689
  37.5978101  51.4796007   8.9457017  38.2502159  50.9472450   9.1748043
  36.9003710  51.1264660   9.3324891  37.5908819  51.3485530   9.0369185
  34.5459366  43.8335185   8.3524392  35.3005334  44.2148224   8.5659854
  33.9529978  44.2846329   8.8071088  34.5696079  43.9564012   8.4507270
  45.5918019  43.8000422   8.2887997  46.1576052  44.4593631   8.2046540
  44.9445923  44.1450120   8.7604399  45.5796776  43.9482363   8.3460753
  37.0066033  35.7898025  23.4781604  36.1965809  36.0955805  23.3671446
  37.4840720  36.5103608  23.5934188  36.9569512  35.9412627  23.4788675
  35.8657592  45.0043746  13.7264507  35.3438346  45.1444038  14.4116372
  36.2531613  44.2454411  13.9166624  35.8461293  44.9129270  13.8565584
  32.8548776  35.0549555   7.7959462  32.5673572  34.6850826   7.0591409
  33.5419245  35.5244411   7.5343167  32.9137674  35.0696525   7.6474538
  42.0624597  46.7439206   7.7125076  41.8211273  46.0107066   7.3052141
  42.2425930  47.2926063   7.0591409  42.0532221  46.7161597   7.5555299
  37.2923918  42.0347766   9.1245998  37.0966701  42.6422500   8.5306301
  37.5158264  41.3415709   8.6437672  37.2958559  42.0225291   8.9662079
  35.6902448  38.9202503   9.2426867  36.4125100  39.0843662   8.7830673
  35.2110441  39.6412168   9.1366206  35.7266179  39.0500733   9.1592481
  43.6495956  35.2566302  14.6223551  42.8107056  35.2827581  14.3861815
  43.7200323  35.9037038  15.2028898  43.5364349  35.3562428  14.6732668
  33.3410065  41.3260576  18.3481006  33.8531162  41.6044829  17.6989766
  33.0546407  42.0649870  18.7143819  33.3744928  41.4762930  18.3070884
  42.0965234  32.1551679   9.3551167  42.7991587  31.9559428   8.8771126
  41.8309423  31.3827622   9.6620011  42.1611866  32.0114645   9.3296609
  47.5253479  40.4634289  11.9084793  47.4387454  40.6189715  12.7619572
  47.0703959  41.1072365  11.5344198  47.4456736  40.5810044  11.9791900
  30.4276971  35.8330768   8.6444743  30.5293108  36.6356929   8.9725718
  31.2232858  35.6318104   8.3467823  30.5604877  35.9216666   8.6480098
  36.8593790  33.4186964  18.4082048  36.6676987  33.4342099  19.2581472
  37.7092386  33.6150639  18.3848703  36.9569512  33.4501316  18.5305343
  31.2440703  35.9477946  16.3865864  31.1026195  35.0961887  16.5110372
  31.5281267  35.9906607  15.5628070  31.2648549  35.8277696  16.2833489
  41.3979296  37.7845036  10.5310353  41.1514010  37.7040787  11.3647142
  41.7264419  36.9998504  10.3372880  41.4100539  37.6571301  10.6257876
  45.2927344  44.4928395  14.3197134  45.1541704  45.1909441  14.8245876
  44.5127342  44.3377052  13.9633316  45.1570571  44.5728562  14.3423408
  43.6305429  40.7924771  20.5719516  43.6253468  39.9204587  20.5761942
  44.3366423  40.9912940  20.0988971  43.7350433  40.6928645  20.5026551
  37.3576323  40.5201755  19.9433336  37.5019699  41.1002963  19.3076446
  37.7051971  40.8978051  20.6483190  37.4303784  40.6622459  19.9532331
  39.5296240  39.7191923  17.7258467  38.7819554  39.9122937  17.3206745
  39.6837765  38.8937143  17.4882589  39.4418668  39.6257034  17.6303873
  36.4304078  48.7104526  16.8094363  36.5793642  48.1507442  16.1567767
  37.2104080  48.7896528  17.1926881  36.5678171  48.6390092  16.7691312
  46.7880717  43.8506649   5.0813633  46.4087526  43.0643787   5.0742923
  46.1246963  44.3993506   4.9385277  46.6339192  43.8151473   5.0594430
  38.9557378  48.8819169  18.0878853  38.8801050  48.2127980  18.6429642
  38.8847238  49.5836958  18.6019520  38.9337985  48.8864077  18.2455702
  39.7698017  33.6142474  18.6153871  40.2270631  34.3466448  18.7426663
  39.8454346  33.1908939  19.3741127  39.8488987  33.6599712  18.7454948
  32.0131008  33.8608293  19.7043315  31.4773198  33.2488652  20.0204082
  32.0748773  34.4356429  20.3576981  31.9426641  33.8555221  19.8478742
  44.2425343  26.7932349  12.4847714  44.3608911  27.2508812  11.7515017
  44.0687519  25.9877610  12.1983932  44.2344514  26.7426121  12.3348648
  39.6127625  47.4020168   8.9202459  40.3777516  47.1329812   8.5985124
  39.5105715  46.9170179   9.6372522  39.7109121  47.2909733   8.9782287
  37.6480395  35.6044578  15.4595695  36.8576470  35.4236038  15.7813031
  38.0441018  34.8271530  15.4425990  37.5897271  35.4632039  15.5048244
  42.1346286  44.4332352   0.9002409  42.9019271  44.4932477   0.4908261
  41.6877595  43.8612793   0.4158727  42.1819713  44.3568928   0.7680119
  43.0324081  43.2387008  13.1855141  42.3569083  43.0072240  13.6868528
  43.0416458  42.6308191  12.5597246  42.9342586  43.1145933  13.1671293
  40.1618225  38.0804837  19.9419194  40.0977367  38.9414793  19.8139331
  40.3015413  37.7636830  19.1414745  40.1733695  38.1605003  19.8047407
  45.0340816  46.0952140   5.4165319  45.1160653  46.9019126   5.0926770
  45.5190558  46.1148099   6.1406093  45.1177974  46.2172803   5.4752218
  38.8437319  40.7736976  14.0835397  38.4199568  40.9741475  13.3474415
  38.6682174  39.9265824  14.1959697  38.7548200  40.6785758  13.9909087
  34.1319764  41.2689028   9.5163370  34.2884383  41.2035830  10.3719362
  34.4720357  42.0437580   9.3042049  34.2052999  41.3738226   9.6117964
  40.6698909  40.6446911   8.3856733  41.2114454  40.1417292   8.8495353
  40.9845468  40.5912106   7.5746218  40.7963306  40.5626332   8.3340545
  38.8385359  46.0364263   5.6696761  38.9078179  45.1778801   5.8089761
  39.6173814  46.2536144   5.3415785  38.9638209  45.9417127   5.6413918
  41.8188178  35.5383216  18.4379033  42.0330148  34.8994130  17.8842387
  41.2022077  35.9829040  18.0086895  41.7593507  35.5093359  18.2929464
  43.2292846  48.4601964   9.8833254  42.8372638  48.1568679   9.1656120
  43.3845918  49.2971054   9.6938208  43.1946436  48.5385801   9.7489751
  30.7054026  38.4523978   9.8324137  31.0852991  38.8708523   9.1684404
  30.1309391  39.0337434  10.1392980  30.6765351  38.6001837   9.7800878
  43.9827266  37.1472281  19.3762340  43.1703948  36.8398171  19.4575513
  44.4417201  36.6671281  19.9405052  43.9307651  37.0308773  19.4716934
  43.3932521  45.0251953   9.8239285  43.0347176  45.1966596  10.6003317
  42.9071232  45.4865158   9.2667283  43.2691218  45.1190924   9.8564554
  41.2102907  28.6483151  13.4266376  40.3396465  28.6221872  13.3799685
  41.4643248  28.4760344  12.6092222  41.1196467  28.6193295  13.2986513
  38.1820886  40.7051118   2.3639519  38.4713411  41.4816001   2.6383093
  38.2692685  40.1939850   3.0654018  38.2375143  40.7443037   2.5082017
  38.2352047  30.6589380  14.8839846  37.7190536  29.9669571  15.0091425
  37.6745976  31.3260157  14.8302445  38.0758561  30.6552637  14.8945912
  40.3044281  31.1982340  16.7132699  39.9176034  31.2231371  17.4946229
  39.8177218  30.6324018  16.2607216  40.1756790  31.1178091  16.7620603
  46.2794260  37.7644995  15.3372401  45.8521868  37.6771343  14.5820501
  45.6420313  37.8722770  15.9227245  46.1223868  37.7677655  15.3117843
  39.9701423  28.0849325  19.0042959  40.5994541  28.6209625  18.7264029
  40.1387285  27.9926684  19.8556525  40.0879217  28.1510688  19.0891487
  39.7715337  32.8720520  21.2769370  40.5988767  32.6005669  21.3327985
  39.7923183  33.6681362  21.6333189  39.8968188  32.9500274  21.3384553
  44.6091517  46.6075657  17.4111842  45.3983895  46.2564722  17.5313924
  44.7835115  47.4212045  17.1488476  44.7511799  46.6761514  17.3899710
  34.3484827  40.0184383  14.4639631  33.5072834  39.9188257  14.6718525
  34.5574835  40.7879863  14.8153952  34.2549520  40.1176426  14.5466946
  31.8260394  37.6403920  12.2924382  31.4317092  37.7146932  11.5174491
  31.2700511  38.0261866  12.8432744  31.6863207  37.7085694  12.2592042
  43.4625341  30.6185214  11.9728261  43.6674934  30.5507522  12.8185258
  43.1351765  31.4244035  11.9049438  43.4440589  30.7271154  12.0887916
  38.1601492  37.9465782  13.7137229  37.8564630  37.3921770  14.3147636
  37.4580913  38.1257992  13.2265263  38.0117702  37.8910564  13.7306934
  37.2167589  35.2566302   8.2781930  37.4927324  34.5385214   7.8659498
  37.8166259  35.8551222   8.0703037  37.3460854  35.2386673   8.1862692
  36.2219843  45.1615503  18.4209326  36.1140198  45.1717565  19.2871384
  36.4315625  45.9870283  18.2314280  36.2369954  45.2856578  18.5213418
  46.7159029  31.1716978  11.4531026  46.1033342  31.6587380  11.8384758
  46.8123204  30.4960469  11.9968677  46.6396926  31.1435287  11.5909884
  40.7178110  32.9279819   6.5528525  41.1721856  33.0990380   7.2776370
  41.1918155  32.3147930   6.1526301  40.8546430  32.8630704   6.6002287
  34.2393635  42.4128145  15.8831264  33.6481568  43.0537643  15.8534279
  35.0014659  42.8365762  15.8562563  34.2641896  42.5703984  15.8746411
  34.6354258  33.5730143  16.5499282  35.0955740  33.6469072  17.2874405
  34.6810365  34.3711397  16.1999103  34.7104813  33.7024290  16.6072038
  36.2837608  34.2396838  21.1171309  35.8923173  33.5930185  21.5527086
  36.4523470  34.8308273  21.7365564  36.2508518  34.2311106  21.2734015
  50.3584057  42.2433915  16.8808542  50.4167180  42.6920564  17.6268519
  49.7250524  42.6532728  16.4438622  50.2735352  42.3707649  16.9261091
  43.9983151  47.8637457  13.3163288  43.8002840  48.3528271  12.6219500
  43.3770862  48.0678698  13.8947422  43.8770716  47.9653995  13.2986512
  38.0591130  39.6322354   7.6573533  38.8033175  40.0196630   7.8956483
  38.2051826  38.7879779   7.8214021  38.1901715  39.5652826   7.7167502
  39.9770705  31.4272612  12.6905394  39.1306750  31.5995420  12.5646744
  39.9741838  30.6221956  13.0271222  39.8517855  31.3333641  12.7216521
  41.0469006  35.2047827  13.5567452  40.5728960  34.6789589  14.0672763
  41.4187141  34.6577300  12.9882314  41.0318895  35.0463823  13.5482599
  31.4242036  37.2019334  18.9250998  32.2867649  37.1015043  18.8388328
  31.0933819  36.6214043  18.3636570  31.5027232  37.1010960  18.8296404
  47.3105736  40.2650203  14.9674233  47.0703959  39.4256618  14.9716659
  47.7897743  40.3450369  15.6915006  47.3457920  40.1531602  15.0749035
  42.9752505  36.0984381   6.6193206  42.4475524  36.1813125   5.9298915
  43.4348213  36.8402253   6.6157851  42.9654356  36.2205044   6.5167901
  49.3110923  37.0451660  12.9203492  49.0720693  37.0047494  12.0824276
  49.4744824  37.8922812  13.0469213  49.3001227  37.1643745  12.8156974
  45.9156953  41.4301609  18.8508537  46.6391152  40.9774135  18.6719557
  45.6506916  41.7106275  18.0680865  45.9838227  41.4052578  18.7087252
  34.7843822  36.0261783  15.5861416  34.1596892  36.0380175  14.9787369
  34.4489417  36.5021958  16.2352656  34.6429314  36.0980300  15.5917985
  34.9685570  34.3686901   1.6434101  34.6198375  35.0206626   2.1065650
  34.4882016  34.3544014   0.9157972  34.8455814  34.4629955   1.6045192
  31.4969497  44.0862243  17.0265180  30.9669422  43.3954682  17.0760155
  31.7694591  44.0772428  16.1977889  31.4594220  43.9829374  16.9112596
  42.5289588  44.6687945   5.7502863  43.2523787  45.1346058   5.6067436
  42.0890179  44.7361555   5.0000460  42.5705280  44.7471782   5.6187644
  41.6975743  41.5285487  17.0003552  41.0832736  40.9843538  17.2952187
  42.2143028  41.0149724  16.5209368  41.6831405  41.3721896  16.9727780
  40.9372040  42.5989757  14.7347851  40.5099648  41.9739476  14.3013286
  40.9296984  42.3164679  15.5606858  40.8731181  42.4642538  14.7927678
  34.0534567  37.6354930  17.8036284  34.2128054  36.8798254  18.2088006
  33.8727461  38.1845870  18.4577022  34.0499926  37.6048744  17.9598990
  41.9954870  29.8016166  18.3587074  41.4995431  29.9979840  17.6678641
  42.7523932  30.2008834  18.1875876  42.0341695  29.8893900  18.2307211
  39.2657750  33.4758512  14.9490385  39.2900237  32.9418624  14.2603165
  39.5169223  32.9675821  15.6115975  39.3067668  33.3219416  14.9455029
  26.7765339  40.7590007  14.3833529  26.6708789  40.7136851  13.5185613
  26.0265559  41.1043787  14.6647813  26.6500942  40.8030915  14.2970858
  35.5459072  32.2029330  14.3296129  35.5857444  32.7038537  15.0430836
  34.7208737  32.2939724  14.0602052  35.4298598  32.2911146  14.3946667
  37.7288685  41.7690070  22.4316423  36.8784315  41.9061784  22.5674068
  37.8916813  41.0353848  22.8764125  37.6272548  41.6804171  22.5172023
  36.9673435  38.7189840  16.6270028  36.1365365  38.8863658  16.4205276
  36.9124952  38.3425791  17.4118913  36.8362850  38.6879571  16.7118556
  35.3409479  36.9945431   7.1560146  35.4812440  37.4917896   7.8588787
  35.8392012  36.2931726   7.2974359  35.4350560  36.9647410   7.2811725
  35.3709702  37.8612542   4.4852722  36.0054781  38.4572967   4.4202184
  35.4535312  37.5616000   5.2998593  35.4766252  37.9053451   4.5955809
  48.3492267  40.3928020  17.3539087  48.9410108  41.0325271  17.3857285
  48.7851262  39.6951057  17.6431153  48.5010698  40.3846370  17.4019919
  36.9488684  33.7926518   4.4598164  37.2704525  33.3129600   3.8057427
  37.2115628  34.6026164   4.2688976  37.0354710  33.8416416   4.3353656
  40.1785657  44.8145392  17.9796980  39.6710748  45.3681239  18.4237611
  39.8812303  44.8753682  17.1615755  40.0590542  44.9051703  17.9245437
  42.3447839  33.1798712  16.8221643  42.7702911  32.7271238  16.2105170
  41.7304832  32.6258783  17.0986431  42.3176485  33.0312688  16.7726669
  31.8762689  40.0580383   7.7542268  32.3854919  40.6544891   8.1353574
  32.3496962  39.7906357   7.0718688  32.0206065  40.1066199   7.7096791
  42.7893437  48.7308650   5.9100924  42.0722747  48.5569512   5.4448161
  43.4400175  48.4961222   5.3776410  42.7795288  48.6704442   5.7630142
  40.7842062  29.6513812  10.2312220  40.1410380  29.5011458  10.7997359
  40.4441469  29.4056157   9.4661325  40.6387140  29.5925934  10.2015236
  45.3741409  37.6073238   9.6542229  44.7032599  38.1502941   9.5255295
  46.0681159  38.0768094   9.4123924  45.3770276  37.7571510   9.5997757
  39.4228142  49.7469950  14.8853987  39.1993797  48.9888780  15.2538014
  38.9337986  49.7767972  14.1634427  39.3171591  49.6392175  14.8330728
  45.5369536  34.0629122  12.5632602  45.8897146  33.6358845  13.2378401
  44.6784338  33.9779966  12.6933679  45.4618981  33.9873863  12.6827613
  34.2353221  36.6936642  10.6215449  33.5165210  37.1100774  10.8888312
  34.6065583  37.2590881  10.0707087  34.1845153  36.8385923  10.5798256
  43.5352802  37.3264491  16.5117445  43.5150729  37.1447786  17.3652223
  43.5832003  38.1976509  16.4877028  43.5387443  37.4281029  16.6340739
  41.4799132  43.9151683  22.4365921  41.4394987  43.2701360  21.8511077
  42.2922450  43.8588300  22.7491333  41.5942285  43.8110650  22.3962870
  38.0706599  49.9670409  12.3391072  37.6566998  49.3044539  11.9494914
  38.7553974  50.1148267  11.8186766  38.1104971  49.8911067  12.2047569
  41.4371893  49.1260494  13.0914689  41.0388177  49.2362764  12.3235509
  40.8223113  49.3342560  13.6741248  41.2870783  49.1734062  13.0645988
  40.0099795  35.7334642   5.9588828  39.4164635  36.0551638   5.4073395
  40.0475073  34.8875737   5.7509934  39.9274185  35.6558970   5.8471600
  46.9693596  29.1847534  13.4916915  46.4624461  28.4776673  13.4238092
  47.7661030  28.8540723  13.6217991  47.0120835  29.0320685  13.5015910
  42.8857612  35.6914146   9.3890579  42.6571305  35.7146848   8.5468937
  43.1455688  34.8671613   9.5085589  42.8903800  35.5730226   9.2815776
  37.1676841  37.5448619  18.9915679  36.6555744  36.9369802  19.3500710
  36.9956337  38.2605212  19.4589654  37.0666478  37.5611919  19.1131902
  35.9402375  34.2290692  10.6844774  36.4159741  34.5907772  10.0494955
  35.4390974  34.8847160  10.9644917  35.9367734  34.3784881  10.6321515
  49.1713736  43.7012461   6.4757779  49.5547342  44.4503817   6.7055876
  48.3757849  43.9478280   6.2169768  49.1107518  43.8482154   6.4715353
  41.0445911  35.4672864  21.4317934  41.6017341  35.2386673  20.7996400
  40.7206976  36.2278529  21.1553147  41.0792321  35.5456701  21.2974431
  28.9144620  38.8933060  16.9006530  28.3671339  38.2233706  17.0187399
  29.7036998  38.5262908  16.9649998  28.9496803  38.7398047  16.9275231
  38.7629028  38.5540517  22.3969941  39.5140355  38.8692194  22.7109496
  38.9551605  38.3519688  21.5703863  38.9020442  38.5707899  22.3213337
  37.9829028  36.3731892   4.0518158  38.3627993  36.3911521   3.2669273
  37.2421624  36.8185881   3.9309005  37.9297865  36.4413667   3.9181726
  45.6114318  34.6814083   9.6393737  45.6108545  34.5262740  10.4978013
  45.4070498  35.5277071   9.5835122  45.5814096  34.7834704   9.7581676
  27.6731589  38.1053868  14.0552553  27.4953350  37.6530477  14.7807469
  27.3850611  38.9080029  14.2391031  27.6044542  38.1576426  14.1896056
  43.3355170  39.3611585  13.2929944  43.8308836  38.6434580  13.2533964
  42.5254946  39.0582383  13.1784431  43.2899064  39.2109232  13.2703670
  38.7813782  43.2109399   5.4426948  37.9725105  42.8876072   5.3960258
  39.2888691  42.5042621   5.3755197  38.7363449  43.0590715   5.4257243
  29.4104059  40.6381592  11.1674312  28.5449579  40.6267282  11.0557084
  29.5102875  40.4511815  12.0145452  29.2978226  40.6087653  11.2763257
  45.4006989  42.1115273  15.9807072  45.8262061  41.5889695  15.4277497
  45.0363909  42.7096110  15.4595695  45.4093592  42.1225500  15.8216082
  35.0361069  50.4079490  14.7404418  35.3507628  51.2215879  14.7482200
  35.4454482  50.0229709  15.4086577  35.1429167  50.4708193  14.8408510
  41.9885589  45.8249537  12.3108230  42.4596767  46.5389800  12.4798215
  42.3245767  45.2248287  12.8468099  42.1080704  45.8421001  12.4140606
  38.9055084  30.5977008  19.2666325  39.0382989  29.8008001  19.5947300
  39.2900236  31.1243411  19.8464600  38.9811412  30.5576924  19.4009828
  42.6259535  45.6167471  19.0735923  42.0780481  44.9925355  18.8055988
  43.0872564  45.8061743  18.3580002  42.6126744  45.5526521  18.9286354
  41.9787439  27.5207334  15.8647418  41.1733402  27.4105063  16.1815256
  41.8494174  27.6219789  15.0077284  41.8407572  27.5191004  15.7855458
  45.4353399  33.6852826  16.4587115  44.8516388  34.1862032  16.0464682
  45.7557693  33.1782382  15.8251438  45.3966575  33.6844661  16.3045622
  37.9748198  32.5993420   6.7345790  38.7963893  32.7691733   6.4927485
  37.5117849  32.7540681   6.0112087  38.0279361  32.6475153   6.5917434
  36.5643530  30.5936183  17.5144218  37.1087943  30.2527309  18.1048560
  36.6180466  31.4521644  17.6565503  36.6532650  30.6691442  17.6226092
  32.3774089  44.3552599  14.3883026  32.9818946  44.3148433  13.7596847
  32.1701402  45.2023751  14.4187082  32.4362986  44.4740601  14.2999143
  42.1917861  46.6218544  15.6045264  43.0116235  46.4781510  15.8661559
  41.9111939  47.2464743  16.1461702  42.2714605  46.6928896  15.7233203
  27.6125371  43.3387216  14.2581949  27.5149649  42.5283488  14.5672006
  28.3954241  43.3179010  13.8728218  27.7141508  43.2154306  14.2468812
  58.6631512  54.2783396   8.5688140  58.6325516  55.1328032   8.7406410
  59.2612860  53.9778688   9.1274284  58.7468670  54.3599892   8.6762942
  51.8631196  53.3659047  13.3241071  51.0069092  53.5267545  13.3750187
  51.9098850  52.4951111  13.3446132  51.7430308  53.2609848  13.3347137
  46.2472336  62.9021764   9.0878302  45.4955236  62.5237303   8.8594347
  46.6958348  62.9340198   8.3397112  46.2022003  62.8507372   8.9435804
  55.1724913  59.6345572  22.9301527  55.8791680  59.1397603  23.0588461
  55.3612848  60.0754654  22.2004185  55.3052819  59.6263923  22.8410572
  54.7083017  55.4251091  15.9672722  55.2538978  56.1036177  16.0266692
  54.6499894  55.2838551  15.1074304  54.7798932  55.5043092  15.8484783
  47.8257092  62.9140157  11.3541075  47.9267455  62.1040511  11.6638202
  47.2298838  62.8197103  10.7240753  47.7529631  62.7805185  11.3067313
  47.6657832  67.8317746  12.7555931  48.3095287  68.2730910  13.1452089
  47.9914087  67.0271172  12.6686189  47.8089661  67.7782941  12.8001408
  41.0222137  58.9360443  10.9793408  40.7872321  58.1028096  10.8725677
  41.1607777  59.2165109  10.1654609  41.0077799  58.8543947  10.8435763
  43.3212224  51.1046174  13.8777716  42.7017256  50.5138821  13.7087731
  43.2196088  51.6957609  13.2442039  43.2149900  51.1050256  13.7582706
  50.4180120  52.8445716   8.2110179  51.1160284  53.0233843   8.7031642
  50.7332452  52.3216055   7.5880568  50.5675457  52.7939488   8.1912189
  43.0481357  54.6498455  16.1221285  42.9240054  55.2360901  16.7571104
  43.6999642  54.1558651  16.4233560  43.1255006  54.6637260  16.2607214
  50.6068055  59.2316161   8.1989971  51.0461691  58.6233261   8.6444743
  50.4572718  58.8523534   7.4275436  50.6489521  59.0854632   8.1509138
  48.0739698  57.8260172  15.4008796  48.7188701  57.3332616  15.0819745
  48.3141475  57.9684959  16.2274874  48.2050283  57.7737615  15.4758329
  50.6125789  60.6715078  15.0515689  50.8949032  59.8766484  14.8302444
  51.3411950  61.1495666  15.0720750  50.7615353  60.6249675  15.0218704
  48.5906983  48.2138112  12.2931454  48.2610313  48.6649256  11.6235152
  47.9151985  48.1354276  12.8404460  48.4417420  48.2689247  12.2754677
  55.7983391  44.2023635  10.5381064  55.4836832  44.8927114  10.9701487
  55.2810333  44.1468417   9.8366565  55.6747862  44.2958524  10.4978013
  60.5943878  59.7774440  12.0251519  59.7641581  59.9885084  12.1884936
  60.5453130  58.9511495  11.7493803  60.4650613  59.6864047  12.0088885
  42.5839461  63.8146114  12.2549614  42.1007040  64.5396604  12.2309198
  43.3962780  64.1122244  12.3659772  42.6330209  63.9648468  12.2676894
  48.6553615  62.6078295  14.8599429  48.1380557  62.2485710  14.2560737
  49.3528007  62.0840469  14.8705495  48.6819197  62.4775983  14.7729688
  52.3117207  63.0573109  20.8215602  52.4000553  62.8699249  21.6693812
  52.7406920  62.4110538  20.4220449  52.3879310  62.9336116  20.8887353
  49.8787667  62.3404269  19.8033264  49.3158502  61.9276879  20.3272925
  50.6408691  62.2657174  20.2226407  49.9082116  62.2681669  19.9426264
  46.7962937  46.2750401   7.7754401  47.5508905  46.6428718   7.5371452
  46.6190472  46.6489955   8.5433581  46.8817416  46.3848589   7.8539290
  45.4383659  64.3302290  12.4069894  46.1404238  63.8154279  12.4642651
  45.3581142  64.6576441  13.2116769  45.5307419  64.3016516  12.5342686
  60.0897836  52.4244841  15.8201941  59.2526257  52.4947028  16.0549535
  60.0586067  52.4269336  14.9476243  59.9616119  52.4355068  15.7261489
  45.1520002  48.6820720   4.4732514  44.9695575  48.8992600   3.6473507
  46.0145615  48.7959732   4.5291129  45.2524592  48.7310618   4.3587001
  44.7634434  60.5208642  11.9155502  45.6023333  60.7531575  11.9629264
  44.7946203  59.6512953  11.8462538  44.8916152  60.4265588  11.9120147
  45.3887137  60.9409517  16.2168808  45.9285362  60.7980648  16.8872180
  44.7057083  61.3406268  16.5852834  45.3679291  60.9789188  16.3703230
  50.8319721  45.6847130   7.5081538  51.5605882  45.5063085   7.0619694
  50.9214614  46.5265210   7.7188716  50.9526383  45.7831009   7.4735056
  54.8128022  56.6200518  11.4113832  55.5685537  57.0532032  11.4502741
  54.9190346  55.9705287  11.9848468  54.9398192  56.5878002  11.5011858
  57.8508193  60.4473795  12.1616235  57.4143425  60.4510537  12.9175207
  57.5171108  61.1279294  11.7295813  57.7370813  60.5486251  12.2097068
  40.7924282  57.1609808  16.3703229  40.5262697  56.3448925  16.5294220
  40.8062846  57.2062963  15.4998745  40.7549004  57.0466713  16.2656711
  57.7705676  47.4887623  14.4045663  58.4131584  47.5585727  14.9907578
  58.0228697  46.8216846  13.9025205  57.9027808  47.4013971  14.4172942
  44.6982029  51.9594892   2.9854987  43.9840206  51.6733072   3.3977420
  45.1825998  52.2991518   3.6261375  44.6641392  51.9676542   3.1410622
  52.5807660  64.3992230  17.1325841  51.7822906  64.1591730  17.3899710
  53.0293671  64.4506623  17.8792889  52.5282271  64.3714621  17.2810765
  60.9852539  57.1654715  11.0535872  61.6468973  56.6045383  10.9531781
  60.3443951  56.6706746  11.3788564  60.9881407  57.0091124  11.0868213
  57.2717370  58.1820097  10.7947861  57.5072959  58.3265296   9.9674712
  57.4206934  58.9462505  11.1879375  57.3283173  58.3159152  10.7311465
  54.3139716  54.8686666   9.3141045  54.4086570  55.6075960   9.7680671
  53.6898559  54.4404141   9.7475610  54.2348746  54.9147986   9.4449193
  52.5692190  58.0472878  19.9631326  53.1431051  57.4100123  20.1179890
  52.4906993  58.0476961  19.0940984  52.6425424  57.9537990  19.8577737
  41.1688606  54.8262088  13.8014040  41.7462109  54.6898539  14.4406286
  40.4702668  54.3697872  14.0559625  41.1509627  54.7384354  13.9336330
  47.9255908  56.4796144  12.0152523  47.6675153  55.6467878  11.9883823
  47.9804391  56.7053757  11.1745024  47.8955686  56.3893915  11.8872660
  53.0056958  48.5824594  12.1156616  52.3013285  48.0933780  12.2740535
  53.0541933  48.5947069  11.2445061  52.9087010  48.5114242  12.0095956
  46.8990620  54.0333906  12.5017418  46.3240212  54.1926074  13.1381379
  46.5226297  53.3969315  12.0385869  46.7593433  53.9631719  12.5271977
  50.5663909  52.5057255  17.3609797  50.1778342  52.0811473  16.7061988
  49.9018607  52.7539405  17.8686823  50.4110837  52.4795976  17.3397665
  60.2087178  52.2632260  10.1357627  59.9523743  51.4512202   9.9455509
  61.0516492  52.2709827   9.9087814  60.2953204  52.1444257  10.0742444
  36.6447439  53.6773981  10.5161859  36.7307691  53.3005849  11.2975389
  37.2723237  53.3034426  10.0381817  36.7503990  53.5659463  10.5607336
  54.3890271  46.2031884  14.8733781  54.7700782  45.5210055  15.2601655
  53.5853555  45.9141486  14.6909445  54.3266732  46.0598933  14.9037837
  57.8912337  59.4181856  19.9716179  57.6550975  58.5869921  19.8528240
  58.5355566  59.3667463  20.5571023  57.9507008  59.2879544  20.0402073
  47.5410756  60.2077377  10.6858916  48.1784702  59.9689125  11.2310709
  47.9665827  60.4114536   9.9512076  47.6986922  60.2028388  10.6576073
  42.2323398  62.4465714  14.5693219  42.2727543  62.7180565  13.7412999
  42.7917922  62.9707622  14.9851007  42.3206744  62.5641469  14.5085108
  48.1813571  55.4279667   5.0233805  48.5658723  55.2087374   5.7750350
  47.9325191  56.2542613   5.1534881  48.2015643  55.5177813   5.1534881
  58.9148758  59.2026305  16.0344474  58.6094575  59.9354362  16.3957789
  58.1954974  58.7964234  15.7537260  58.7636100  59.2508038  16.0457611
  49.9232228  60.6849800  12.3652702  49.9971236  60.5224972  13.2194552
  50.7401734  60.8739990  12.1213184  50.0548586  60.6886542  12.4550728
  64.6150550  55.8419306  15.3612818  64.5475051  55.8615265  14.4915405
  64.6006213  56.6849633  15.5868489  64.6029307  55.9693040  15.2665295
  43.6837984  61.0307663   9.3947145  42.8576102  61.2769400   9.2681424
  43.7449975  60.9519744  10.2609204  43.5712151  61.0552612   9.5036090
  45.9014008  47.0976604  10.3542586  45.0336433  47.1699203  10.4200195
  46.1889212  47.8998683  10.5430561  45.8153756  47.2270751  10.3917352
  55.0246897  47.2454463  18.6853907  55.7700489  47.0564274  18.2717333
  54.6084201  47.7712701  18.1267764  55.0731871  47.2956609  18.5418481
  62.4009168  54.6163692  13.6359412  62.9517089  53.9831761  13.8756504
  62.3853283  55.1479085  14.3274917  62.4794364  54.6012640  13.7738271
  49.0531558  58.4502289  18.1819306  48.5543252  59.1618057  18.2604194
  49.8631783  58.7702956  18.1437468  49.0987665  58.6029138  18.1875874
  46.4042729  65.6251925  10.1626325  46.1843024  65.3349280  10.9552992
  46.1837251  64.9666881   9.6344237  46.3390323  65.4851634  10.2015234
  45.3159676  57.7125242  12.4282027  45.0272925  57.0862713  12.9627754
  46.1843024  57.6545529  12.4946707  45.4019928  57.6112786  12.5172981
  56.1037574  52.8560025  12.7464009  55.7602340  52.1350361  13.0971258
  56.2030616  52.6473877  11.9042367  56.0679617  52.7184229  12.6735689
  45.5191949  59.3520493   8.3524392  46.2737917  59.7333532   8.5659854
  44.9262562  59.8031637   8.8071088  45.5428663  59.4749320   8.4507270
  46.8390176  60.5229054  13.7264507  46.3170930  60.6629346  14.4116372
  47.2264196  59.7639719  13.9166624  46.8193877  60.4314578  13.8565584
  43.8281360  50.5734863   7.7959462  43.5406156  50.2036134   7.0591409
  44.5151828  51.0429718   7.5343167  43.8870257  50.5881832   7.6474538
  48.2656502  57.5533073   9.1245998  48.0699284  58.1607808   8.5306301
  48.4890847  56.8601017   8.6437672  48.2691143  57.5410599   8.9662079
  46.6635032  54.4387811   9.2426867  47.3857684  54.6028969   8.7830673
  46.1843024  55.1597476   9.1366206  46.6998762  54.5686041   9.1592481
  54.6228539  50.7751610  14.6223551  53.7839640  50.8012889  14.3861815
  54.6932906  51.4222346  15.2028898  54.5096933  50.8747736  14.6732668
  53.0697817  47.6736987   9.3551167  53.7724170  47.4744735   8.8771126
  52.8042006  46.9012930   9.6620011  53.1344450  47.5299953   9.3296609
  58.4986063  55.9819597  11.9084793  58.4120038  56.1375023  12.7619572
  58.0436543  56.6257672  11.5344198  58.4189320  56.0995352  11.9791900
  41.4009555  51.3516076   8.6444743  41.5025691  52.1542237   8.9725718
  42.1965441  51.1503412   8.3467823  41.5337460  51.4401974   8.6480098
  42.2173287  51.4663254  16.3865864  42.0758779  50.6147194  16.5110372
  42.5013850  51.5091914  15.5628070  42.2381133  51.3463004  16.2833489
  52.3711879  53.3030344  10.5310353  52.1246593  53.2226095  11.3647142
  52.6997002  52.5183812  10.3372880  52.3833123  53.1756609  10.6257876
  56.2659928  60.0113703  14.3197134  56.1274287  60.7094749  14.8245876
  55.4859926  59.8562360  13.9633316  56.1303155  60.0913870  14.3423408
  54.6038013  56.3110079  20.5719516  54.5986052  55.4389895  20.5761942
  55.3099007  56.5098248  20.0988971  54.7083017  56.2113953  20.5026551
  50.5028824  55.2377231  17.7258467  49.7552138  55.4308245  17.3206745
  50.6570349  54.4122451  17.4882589  50.4151251  55.1442342  17.6303873
  47.4036661  64.2289834  16.8094363  47.5526225  63.6692750  16.1567767
  48.1836663  64.3081836  17.1926881  47.5410755  64.1575400  16.7691312
  49.9289962  64.4004477  18.0878853  49.8533633  63.7313288  18.6429642
  49.8579821  65.1022265  18.6019520  49.9070569  64.4049385  18.2455702
  50.7430601  49.1327782  18.6153871  51.2003215  49.8651756  18.7426663
  50.8186930  48.7094247  19.3741127  50.8221571  49.1785020  18.7454948
  55.2157927  42.3117657  12.4847714  55.3341495  42.7694120  11.7515017
  55.0420102  41.5062918  12.1983932  55.2077098  42.2611429  12.3348648
  48.6212979  51.1229886  15.4595695  47.8309053  50.9421346  15.7813031
  49.0173602  50.3456838  15.4425990  48.5629855  50.9817347  15.5048244
  54.0056665  58.7572316  13.1855141  53.3301667  58.5257548  13.6868528
  54.0149041  58.1493499  12.5597246  53.9075170  58.6331241  13.1671293
  51.1350809  53.5990145  19.9419194  51.0709950  54.4600101  19.8139331
  51.2747997  53.2822138  19.1414745  51.1466279  53.6790311  19.8047407
  49.8169903  56.2922284  14.0835397  49.3932152  56.4926783  13.3474415
  49.6414758  55.4451132  14.1959697  49.7280783  56.1971066  13.9909087
  49.3181596  67.8072797  16.5456854  49.8077527  67.1083586  16.3632519
  48.7465829  67.5096667  17.1332912  49.3066126  67.6599021  16.6057895
  45.1052348  56.7874336   9.5163370  45.2616967  56.7221138  10.3719362
  45.4452941  57.5622888   9.3042049  45.1785583  56.8923534   9.6117964
  51.6431492  56.1632219   8.3856733  52.1847038  55.6602600   8.8495353
  51.9578051  56.1097414   7.5746218  51.7695890  56.0811640   8.3340545
  55.5148600  60.3734866  25.4983645  56.3283465  60.1020015  25.6588777
  55.3543566  60.0742406  24.6943841  55.6118548  60.2889792  25.4029051
  52.7920762  51.0568524  18.4379033  53.0062731  50.4179438  17.8842387
  52.1754661  51.5014347  18.0086895  52.7326091  51.0278667  18.2929464
  41.6786609  53.9709286   9.8324137  42.0585574  54.3893831   9.1684404
  41.1041974  54.5522742  10.1392980  41.6497934  54.1187145   9.7800878
  54.9559850  52.6657589  19.3762340  54.1436532  52.3583479  19.4575513
  55.4149784  52.1856589  19.9405052  54.9040235  52.5494081  19.4716934
  52.1835490  44.1668459  13.4266376  51.3129048  44.1407180  13.3799685
  52.4375832  43.9945651  12.6092222  52.0929051  44.1378603  13.2986513
  49.2084631  46.1774688  14.8839846  48.6923120  45.4854879  15.0091425
  48.6478560  46.8445465  14.8302445  49.0491144  46.1737945  14.8945912
  51.2776864  46.7167648  16.7132699  50.8908618  46.7416679  17.4946229
  50.7909802  46.1509326  16.2607216  51.1489373  46.6363399  16.7620603
  55.5269844  61.4341157  20.7706485  56.1649564  60.9401352  20.4368942
  54.8843935  61.3618557  20.1858712  55.5264070  61.3500165  20.6348840
  57.2526844  53.2830303  15.3372401  56.8254452  53.1956651  14.5820501
  56.6152897  53.3908078  15.9227245  57.0956451  53.2862963  15.3117843
  50.9434006  43.6034633  19.0042959  51.5727124  44.1394933  18.7264029
  51.1119869  43.5111992  19.8556525  51.0611801  43.6695995  19.0891487
  55.5824100  62.1260965  17.4111842  56.3716479  61.7750030  17.5313924
  55.7567698  62.9397353  17.1488476  55.7244382  62.1946822  17.3899710
  45.3217411  55.5369691  14.4639631  44.4805417  55.4373565  14.6718525
  45.5307419  56.3065171  14.8153952  45.2282103  55.6361734  14.5466946
  42.7992978  53.1589228  12.2924382  42.4049676  53.2332239  11.5174491
  42.2433095  53.5447174  12.8432744  42.6595790  53.2271002  12.2592042
  54.4357925  46.1370522  11.9728261  54.6407518  46.0692830  12.8185258
  54.1084349  46.9429343  11.9049438  54.4173172  46.2456462  12.0887916
  49.1334076  53.4651090  13.7137229  48.8297213  52.9107078  14.3147636
  48.4313496  53.6443300  13.2265263  48.9850286  53.4095872  13.7306934
  48.1900173  50.7751610   8.2781930  48.4659907  50.0570522   7.8659498
  48.7898842  51.3736530   8.0703037  48.3193437  50.7571980   8.1862692
  47.1952427  60.6800811  18.4209326  47.0872782  60.6902873  19.2871384
  47.4048208  61.5055591  18.2314280  47.2102538  60.8041885  18.5213418
  57.6891612  46.6902286  11.4531026  57.0765926  47.1772688  11.8384758
  57.7855787  46.0145777  11.9968677  57.6129510  46.6620595  11.5909884
  51.6910693  48.4465127   6.5528525  52.1454440  48.6175687   7.2776370
  52.1650739  47.8333238   6.1526301  51.8279013  48.3816012   6.6002287
  45.2126219  57.9313453  15.8831264  44.6214152  58.5722951  15.8534279
  45.9747242  58.3551070  15.8562563  45.2374479  58.0889291  15.8746411
  45.6086842  49.0915451  16.5499282  46.0688323  49.1654380  17.2874405
  45.6542948  49.8896705  16.1999103  45.6837397  49.2209598  16.6072038
  61.3316640  57.7619223  16.8808542  61.3899764  58.2105871  17.6268519
  60.6983108  58.1718036  16.4438622  61.2467935  57.8892957  16.9261091
  54.9715735  63.3822765  13.3163288  54.7735424  63.8713579  12.6219500
  54.3503446  63.5864006  13.8947422  54.8503299  63.4839303  13.2986512
  49.0323713  55.1507661   7.6573533  49.7765758  55.5381938   7.8956483
  49.1784409  54.3065087   7.8214021  49.1634298  55.0838134   7.7167502
  50.9503289  46.9457920  12.6905394  50.1039334  47.1180728  12.5646744
  50.9474421  46.1407264  13.0271222  50.8250439  46.8518949  12.7216521
  52.0201589  50.7233135  13.5567452  51.5461543  50.1974897  14.0672763
  52.3919725  50.1762608  12.9882314  52.0051478  50.5649131  13.5482599
  58.2838320  55.7835510  14.9674233  58.0436543  54.9441926  14.9716659
  58.7630327  55.8635677  15.6915006  58.3190503  55.6716910  15.0749035
  53.9485089  51.6169689   6.6193206  53.4208107  51.6998433   5.9298915
  54.4080797  52.3587561   6.6157851  53.9386939  51.7390352   6.5167901
  60.2843507  52.5636968  12.9203492  60.0453277  52.5232802  12.0824276
  60.4477408  53.4108120  13.0469213  60.2733810  52.6829053  12.8156974
  56.8889537  56.9486917  18.8508537  57.6123736  56.4959443  18.6719557
  56.6239499  57.2291583  18.0680865  56.9570810  56.9237885  18.7087252
  45.7576405  51.5447090  15.5861416  45.1329475  51.5565482  14.9787369
  45.4222000  52.0207266  16.2352656  45.6161897  51.6165607  15.5917985
  45.9418154  49.8872209   1.6434101  45.5930958  50.5391934   2.1065650
  45.4614600  49.8729322   0.9157972  45.8188398  49.9815262   1.6045192
  42.4702081  59.6047551  17.0265180  41.9402005  58.9139989  17.0760155
  42.7427174  59.5957736  16.1977889  42.4326803  59.5014682  16.9112596
  52.6708326  57.0470795  17.0003552  52.0565319  56.5028845  17.2952187
  53.1875611  56.5335032  16.5209368  52.6563989  56.8907204  16.9727780
  51.9104624  58.1175065  14.7347851  51.4832232  57.4924784  14.3013286
  51.9029568  57.8349987  15.5606858  51.8463765  57.9827846  14.7927678
  45.0267151  53.1540238  17.8036284  45.1860637  52.3983562  18.2088006
  44.8460044  53.7031178  18.4577022  45.0232510  53.1234052  17.9598990
  52.9687454  45.3201474  18.3587074  52.4728015  45.5165148  17.6678641
  53.7256516  45.7194142  18.1875876  53.0074278  45.4079208  18.2307211
  50.2390333  48.9943820  14.9490385  50.2632820  48.4603932  14.2603165
  50.4901807  48.4861129  15.6115975  50.2800252  48.8404724  14.9455029
  37.7497923  56.2775315  14.3833529  37.6441372  56.2322159  13.5185613
  36.9998143  56.6229095  14.6647813  37.6233526  56.3216223  14.2970858
  46.5191655  47.7214638  14.3296129  46.5590027  48.2223845  15.0430836
  45.6941320  47.8125032  14.0602052  46.4031181  47.8096454  14.3946667
  47.9406019  54.2375148  16.6270028  47.1097949  54.4048966  16.4205276
  47.8857536  53.8611099  17.4118913  47.8095434  54.2064879  16.7118556
  46.3142063  52.5130739   7.1560146  46.4545024  53.0103204   7.8588787
  46.8124595  51.8117034   7.2974359  46.4083144  52.4832718   7.2811725
  46.3442285  53.3797850   4.4852722  46.9787365  53.9758275   4.4202184
  46.4267896  53.0801308   5.2998593  46.4498836  53.4238759   4.5955809
  59.3224851  55.9113328  17.3539087  59.9142691  56.5510578  17.3857285
  59.7583845  55.2136364  17.6431153  59.4743282  55.9031678  17.4019919
  47.9221268  49.3111826   4.4598164  48.2437109  48.8314908   3.8057427
  48.1848212  50.1211472   4.2688976  48.0087293  49.3601724   4.3353656
  51.1518241  60.3330700  17.9796980  50.6443332  60.8866547  18.4237611
  50.8544887  60.3938990  17.1615755  51.0323126  60.4237011  17.9245437
  53.3180423  48.6984020  16.8221643  53.7435494  48.2456546  16.2105170
  52.7037416  48.1444090  17.0986431  53.2909068  48.5497996  16.7726669
  42.8495273  55.5765691   7.7542268  43.3587502  56.1730199   8.1353574
  43.3229545  55.3091665   7.0718688  42.9938649  55.6251507   7.7096791
  51.7574646  45.1699120  10.2312220  51.1142964  45.0196766  10.7997359
  51.4174053  44.9241465   9.4661325  51.6119723  45.1111242  10.2015236
  56.3473992  53.1258546   9.6542229  55.6765182  53.6688249   9.5255295
  57.0413742  53.5953402   9.4123924  56.3502860  53.2756818   9.5997757
  56.5102120  49.5814430  12.5632602  56.8629730  49.1544153  13.2378401
  55.6516921  49.4965274  12.6933679  56.4351564  49.5059171  12.6827613
  45.2085805  52.2121950  10.6215449  44.4897794  52.6286082  10.8888312
  45.5798167  52.7776188  10.0707087  45.1577736  52.3571231  10.5798256
  54.5085386  52.8449799  16.5117445  54.4883313  52.6633094  17.3652223
  54.5564586  53.7161817  16.4877028  54.5120027  52.9466337  16.6340739
  52.4531715  59.4336991  22.4365921  52.4127570  58.7886668  21.8511077
  53.2655034  59.3773608  22.7491333  52.5674869  59.3295957  22.3962870
  49.0439183  65.4855716  12.3391072  48.6299582  64.8229847  11.9494914
  49.7286557  65.6333575  11.8186766  49.0837555  65.4096375  12.2047569
  52.4104477  64.6445802  13.0914689  52.0120760  64.7548072  12.3235509
  51.7955697  64.8527868  13.6741248  52.2603366  64.6919370  13.0645988
  50.9832379  51.2519950   5.9588828  50.3897218  51.5736946   5.4073395
  51.0207657  50.4061045   5.7509934  50.9006768  51.1744278   5.8471600
  57.9426180  44.7032842  13.4916915  57.4357044  43.9961981  13.4238092
  58.7393614  44.3726031  13.6217991  57.9853419  44.5505993  13.5015910
  53.8590196  51.2099454   9.3890579  53.6303889  51.2332156   8.5468937
  54.1188272  50.3856921   9.5085589  53.8636384  51.0915534   9.2815776
  46.9134958  49.7476000  10.6844774  47.3892324  50.1093080  10.0494955
  46.4123558  50.4032468  10.9644917  46.9100317  49.8970189  10.6321515
  52.0178494  50.9858172  21.4317934  52.5749925  50.7571981  20.7996400
  51.6939559  51.7463837  21.1553147  52.0524905  51.0642008  21.2974431
  48.9561611  51.8917200   4.0518158  49.3360576  51.9096829   3.2669273
  48.2154207  52.3371189   3.9309005  48.9030449  51.9598975   3.9181726
  56.5846902  50.1999391   9.6393737  56.5841128  50.0448048  10.4978013
  56.3803082  51.0462378   9.5835122  56.5546680  50.3020012   9.7581676
  38.6464173  53.6239176  14.0552553  38.4685934  53.1715785  14.7807469
  38.3583195  54.4265337  14.2391031  38.5777126  53.6761734  14.1896056
  54.3087754  54.8796893  13.2929944  54.8041419  54.1619888  13.2533964
  53.4987530  54.5767691  13.1784431  54.2631647  54.7294539  13.2703670
  40.3836643  56.1566900  11.1674312  39.5182162  56.1452590  11.0557084
  40.4835459  55.9697122  12.0145452  40.2710810  56.1272961  11.2763257
  56.3739573  57.6300581  15.9807072  56.7994644  57.1075003  15.4277497
  56.0096493  58.2281418  15.4595695  56.3826175  57.6410808  15.8216082
  46.0093653  65.9264798  14.7404418  46.3240212  66.7401187  14.7482200
  46.4187066  65.5415017  15.4086577  46.1161751  65.9893501  14.8408510
  52.9618172  61.3434845  12.3108230  53.4329350  62.0575108  12.4798215
  53.2978351  60.7433595  12.8468099  53.0813287  61.3606309  12.4140606
  55.0495157  62.9536158  24.4900302  55.1592122  62.1644719  24.8457049
  55.3786053  62.8642095  23.6874640  55.1147563  62.8242011  24.4242693
  53.5992119  61.1352779  19.0735923  53.0513064  60.5110663  18.8055988
  54.0605147  61.3247051  18.3580002  53.5859328  61.0711829  18.9286354
  52.9520022  43.0392642  15.8647418  52.1465986  42.9290371  16.1815256
  52.8226758  43.1405097  15.0077284  52.8140155  43.0376312  15.7855458
  56.4085983  49.2038134  16.4587115  55.8248972  49.7047340  16.0464682
  56.7290277  48.6967690  15.8251438  56.3699158  49.2029969  16.3045622
  48.9480782  48.1178728   6.7345790  49.7696476  48.2877041   6.4927485
  48.4850433  48.2725989   6.0112087  49.0011944  48.1660461   6.5917434
  47.5376114  46.1121491  17.5144218  48.0820527  45.7712617  18.1048560
  47.5913050  46.9706952  17.6565503  47.6265233  46.1876750  17.6226092
  43.3506673  59.8737907  14.3883026  43.9551530  59.8333741  13.7596847
  43.1433985  60.7209059  14.4187082  43.4095570  59.9925909  14.2999143
  53.1650445  62.1403852  15.6045264  53.9848819  61.9966818  15.8661559
  52.8844522  62.7650051  16.1461702  53.2447188  62.2114204  15.7233203
  38.5857955  58.8572524  14.2581949  38.4882233  58.0468796  14.5672006
  39.3686825  58.8364318  13.8728218  38.6874091  58.7339614  14.2468812
  54.0213941  70.1683763  16.1221285  53.8972638  70.7546209  16.7571104
  54.6732225  69.6743959  16.4233560  54.0987590  70.1822568  16.2607214
  57.4595149  70.0863185  21.5350309  57.6315652  69.9769079  22.3835591
  57.9964506  70.7317590  21.2981502  57.5640153  70.1655186  21.6255406
  56.5155472  66.2173494  19.0170237  55.8227269  65.7470474  19.2630969
  57.1315799  65.9911799  19.5911944  56.5040002  66.1140626  19.1379390
  55.2396031  70.1838898  20.1597082  55.9636003  70.1691929  20.6461977
  55.3412168  70.8934253  19.6619050  55.3614240  70.2863601  20.1575869
  62.6140980  73.6637983  25.0246029  61.8213961  73.9781494  25.2098649
  62.7289908  73.8789451  24.1866814  62.5136391  73.7421819  24.9284364
  61.5396493  68.0242563  17.3609797  61.1510925  67.5996781  16.7061988
  60.8751191  68.2724713  17.8686823  61.3843420  67.9981284  17.3397665
  59.3214695  64.2271390  24.7396389  59.0068136  64.9970953  24.4765952
  59.0004627  63.6641646  24.1548616  59.2273614  64.2581659  24.6137739
  65.9979480  62.7639771  18.6853907  66.7433072  62.5749582  18.2717333
  65.5816785  63.2898009  18.1267764  66.0464455  62.8141917  18.5418481
  58.9531200  66.8268641  23.4781604  58.1430976  67.1326421  23.3671446
  59.4305887  67.5474224  23.5934188  58.9034679  66.9783242  23.4788675
  55.2875232  72.3631192  18.3481006  55.7996329  72.6415445  17.6989766
  55.0011575  73.1020486  18.7143819  55.3210095  72.5133545  18.3070884
  58.8058957  64.4557580  18.4082048  58.6142154  64.4712715  19.2581472
  59.6557553  64.6521255  18.3848703  58.9034679  64.4871931  18.5305343
  53.1905870  66.9848562  16.3865864  53.0491362  66.1332502  16.5110372
  53.4746434  67.0277222  15.5628070  53.2113716  66.8648312  16.2833489
  59.3041490  71.5572371  19.9433336  59.4484866  72.1373579  19.3076446
  59.6517139  71.9348667  20.6483190  59.3768951  71.6993075  19.9532331
  61.7163184  64.6513090  18.6153871  62.1735798  65.3837064  18.7426663
  61.7919513  64.2279555  19.3741127  61.7954154  64.6970328  18.7454948
  53.9596176  64.8978909  19.7043315  53.4238365  64.2859267  20.0204082
  54.0213940  65.4727045  20.3576981  53.8891808  64.8925837  19.8478742
  59.5945562  66.6415194  15.4595695  58.8041637  66.4606654  15.7813031
  59.9906185  65.8642146  15.4425990  59.5362438  66.5002654  15.5048244
  62.1083393  69.1175453  19.9419194  62.0442534  69.9785409  19.8139331
  62.2480580  68.8007446  19.1414745  62.1198863  69.1975619  19.8047407
  63.7653345  66.5753832  18.4379033  63.9795315  65.9364746  17.8842387
  63.1487245  67.0199655  18.0086895  63.7058675  66.5463975  18.2929464
  65.9292433  68.1842897  19.3762340  65.1169115  67.8768787  19.4575513
  66.3882368  67.7041897  19.9405052  65.8772818  68.0679389  19.4716934
  63.0245941  69.5902968  24.1591043  63.4945572  70.2145085  24.5458917
  63.0707821  68.9219944  24.7184257  63.1013817  69.5837648  24.2991114
  60.1817215  61.6959996  14.8839846  59.6655703  61.0040187  15.0091425
  59.6211143  62.3630773  14.8302445  60.0223728  61.6923253  14.8945912
  62.2509448  62.2352956  16.7132699  61.8641201  62.2601987  17.4946229
  61.7642385  61.6694634  16.2607216  62.1221957  62.1548707  16.7620603
  61.9166590  59.1219941  19.0042959  62.5459708  59.6580241  18.7264029
  62.0852452  59.0297300  19.8556525  62.0344384  59.1881303  19.0891487
  61.7180505  63.9091136  21.2769370  62.5453934  63.6376285  21.3327985
  61.7388351  64.7051978  21.6333189  61.8433355  63.9870890  21.3384553
  56.5819425  64.6100759  16.5499282  57.0420907  64.6839688  17.2874405
  56.6275532  65.4082013  16.1999103  56.6569980  64.7394906  16.6072038
  58.2302775  65.2767454  21.1171309  57.8388340  64.6300801  21.5527086
  58.3988638  65.8678889  21.7365564  58.1973685  65.2681721  21.2734015
  53.3707203  68.2389949  18.9250998  54.2332816  68.1385659  18.8388328
  53.0398986  67.6584659  18.3636570  53.4492399  68.1381576  18.8296404
  56.7308989  67.0632398  15.5861416  56.1062059  67.0750790  14.9787369
  56.3954584  67.5392574  16.2352656  56.5894481  67.1350915  15.5917985
  55.9999734  68.6725546  17.8036284  56.1593221  67.9168870  18.2088006
  55.8192628  69.2216486  18.4577022  55.9965093  68.6419360  17.9598990
  63.9420037  60.8386782  18.3587074  63.4460598  61.0350456  17.6678641
  64.6989099  61.2379450  18.1875876  63.9806862  60.9264516  18.2307211
  57.4924239  63.2399946  14.3296129  57.5322611  63.7409152  15.0430836
  56.6673904  63.3310340  14.0602052  57.3763765  63.3281762  14.3946667
  59.6753852  72.8060686  22.4316423  58.8249482  72.9432400  22.5674068
  59.8381980  72.0724464  22.8764125  59.5737715  72.7174787  22.5172023
  56.7222386  63.2469349  22.2626439  57.3475089  62.7031481  22.5355871
  56.2672866  62.7664266  21.6934229  56.7470646  63.0958830  22.2188032
  64.2913007  64.2169328  16.8221643  64.7168078  63.7641854  16.2105170
  63.6770000  63.6629398  17.0986431  64.2641652  64.0683304  16.7726669
  63.4264299  74.9522299  22.4365921  63.3860154  74.3071975  21.8511077
  64.2387617  74.8958916  22.7491333  63.5407452  74.8481265  22.3962870
  59.1142008  68.5819235  18.9915679  58.6020911  67.9740418  19.3500710
  58.9421504  69.2975828  19.4589654  59.0131645  68.5982534  19.1131902
  53.9607722  67.0256810  21.6418040  53.7910313  67.6858185  21.0966247
  53.5173672  67.2363372  22.3630530  53.8707056  67.1542792  21.6679670
  62.9911078  66.5043480  21.4317934  63.5482508  66.2757289  20.7996400
  62.6672143  67.2649145  21.1553147  63.0257488  66.5827316  21.2974431
  50.8609787  69.9303676  16.9006530  50.3136506  69.2604321  17.0187399
  51.6502165  69.5633524  16.9649998  50.8961971  69.7768662  16.9275231
  60.7094195  69.5911133  22.3969941  61.4605522  69.9062810  22.7109496
  60.9016772  69.3890304  21.5703863  60.8485609  69.6078515  22.3213337
  49.6196756  69.1424484  14.0552553  49.4418517  68.6901093  14.7807469
  49.3315778  69.9450645  14.2391031  49.5509710  69.1947042  14.1896056
  60.8520251  61.6347623  19.2666325  60.9848156  60.8378617  19.5947300
  61.2365403  62.1614026  19.8464600  60.9276580  61.5947540  19.4009828
  63.9252606  58.5577950  15.8647418  63.1198570  58.4475679  16.1815256
  63.7959341  58.6590405  15.0077284  63.7872739  58.5561620  15.7855458
  58.5108697  61.6306799  17.5144218  59.0553110  61.2897925  18.1048560
  58.5645633  62.4892260  17.6565503  58.5997817  61.7062058  17.6226092
  43.8943153  21.0538395   9.8641573  44.6009921  20.5590426   9.9928508
  44.0831089  21.4947477   9.1344231  44.0271059  21.0456746   9.7750619
  36.3876072  29.2510569  -0.3104023  37.0313528  29.6923733   0.0792136
  36.7132328  28.4463995  -0.3973764  36.5307901  29.1975764  -0.2658545
  41.0335448  24.4765932   7.7555649  41.1218794  24.2892072   8.6033859
  41.4625160  23.8303362   7.3560496  41.1097550  24.3528940   7.8227400
  38.6005907  23.7597092   6.7373311  38.0376742  23.3469702   7.2612972
  39.3626931  23.6849998   7.1566454  38.6300356  23.6874492   6.8766311
  35.2080805  15.9870700   8.4690356  35.3801309  15.8776595   9.3175638
  35.7450163  16.6325105   8.2321548  35.3125809  16.0662702   8.5595453
  41.1455507  23.9074951  10.4199432  41.9295924  24.0205799  10.7855174
  40.9452102  23.0816088  10.6158118  41.2321532  23.8021670  10.5033818
  41.3025900  25.8185053   4.0665888  40.5041146  25.5784553   4.3239757
  41.7511912  25.8699446   4.8132936  41.2500512  25.7907444   4.2150812
  40.3626637  19.5645498  11.9586076  39.5699618  19.8789010  12.1438696
  40.4775564  19.7796966  11.1206861  40.2622048  19.6429335  11.8624411
  41.2910430  19.4665702   6.8971373  41.8649292  18.8292946   7.0519937
  41.2125234  19.4669784   6.0281030  41.3643665  19.3730813   6.7917784
  46.6130578  20.8374679   6.9056226  46.3769215  20.0062744   6.7868287
  47.2573807  20.7860287   7.4911070  46.6725249  20.7072367   6.9742120
  37.0700351  10.1278906  11.6736436  36.7553792  10.8978468  11.4105999
  36.7490284   9.5649162  11.0888663  36.9759270  10.1589174  11.5477786
  47.6366998  20.6219128   2.9684521  47.3312816  21.3547185   3.3297836
  46.9173214  20.2157058   2.6877307  47.4854341  20.6700861   2.9797658
  53.3368791  17.2612129   2.2952865  53.2693291  17.2808088   1.4255451
  53.3224453  18.1042456   2.5208535  53.3247547  17.3885863   2.2005342
  37.7749799  19.8695112   5.1159353  37.2761492  20.5810880   5.1944241
  38.5850023  20.1895779   5.0777515  37.8205905  20.0221961   5.1215921
  36.7016857  12.7276157  10.4121651  35.8916633  13.0333936  10.3011493
  37.1791543  13.4481739  10.5274235  36.6520336  12.8790758  10.4128722
  44.9878168  21.4306527   1.2537181  44.8492528  22.1287572   1.7585923
  44.2078166  21.2755183   0.8973363  44.8521395  21.5106693   1.2763455
  43.3256253  17.7302902   7.5059562  43.3204292  16.8582718   7.5101989
  44.0317247  17.9291071   7.0329018  43.4301257  17.6306776   7.4366598
  37.0527147  17.4579886   6.8773383  37.1970522  18.0381094   6.2416493
  37.4002795  17.8356183   7.5823237  37.1254608  17.6000590   6.8872378
  36.1254902  25.6482658   3.7434409  36.2744465  25.0885574   3.0907814
  36.9054904  25.7274659   4.1266928  36.2628995  25.5768223   3.7031359
  38.6508202  25.8197301   5.0218900  38.5751873  25.1506111   5.5769689
  38.5798061  26.5215089   5.5359567  38.6288809  25.8242208   5.1795748
  39.8569049  15.0182968   6.8759241  39.7928191  15.8792924   6.7479378
  39.9966237  14.7014961   6.0754792  39.8684519  15.0983135   6.7387454
  38.0399837  29.2265620   3.4796901  38.5295767  28.5276410   3.2972566
  37.4684069  28.9289490   4.0672958  38.0284367  29.0791844   3.5397942
  44.2366840  21.7927690  12.4323692  45.0501705  21.5212839  12.5928824
  44.0761807  21.4935230  11.6283888  44.3336789  21.7082616  12.3369098
  43.6778090  14.0850412   6.3102387  42.8654772  13.7776302   6.3915560
  44.1368025  13.6049412   6.8745099  43.6258475  13.9686904   6.4056981
  40.7731598  15.4910483  11.0931089  41.2431229  16.1152600  11.4798964
  40.8193478  14.8227459  11.6524304  40.8499474  15.4845164  11.2331161
  44.2488084  22.8533980   7.7046532  44.8867805  22.3594176   7.3708988
  43.6062176  22.7811380   7.1198759  44.2482311  22.7692988   7.5688887
  44.3042341  23.5453788   4.3451889  45.0934719  23.1942853   4.4653971
  44.4785939  24.3590177   4.0828523  44.4462622  23.6139645   4.3239757
  35.9170667  22.0993634   5.3549373  35.8091022  22.1095696   6.2211431
  36.1266449  22.9248414   5.1654327  35.9320778  22.2234709   5.4553465
  50.0534881  19.1812046   3.8148589  50.1118004  19.6298695   4.5608566
  49.4201348  19.5910859   3.3778669  49.9686176  19.3085781   3.8601137
  43.6933975  24.8015588   0.2503335  43.4953664  25.2906402  -0.4440453
  43.0721686  25.0056829   0.8287469  43.5721540  24.9032126   0.2326559
  45.6107777  18.3679740   5.7848584  46.3341976  17.9152267   5.6059604
  45.3457740  18.6484406   5.0020911  45.6789051  18.3430709   5.6427299
  41.3926567  18.4663618   3.9343599  40.7783560  17.9221669   4.2292234
  41.9093852  17.9527855   3.4549415  41.3782229  18.3100027   3.9067827
  37.4239509  18.7068201   9.3656470  36.5735139  18.8439915   9.5014115
  37.5867636  17.9731979   9.8104172  37.3223372  18.6182302   9.4512069
  48.0443091  17.3306151   4.2879133  48.6360931  17.9703402   4.3197331
  48.4802086  16.6329188   4.5771200  48.1961522  17.3224501   4.3359966
  39.1178966  26.6848082   1.8194034  38.8944621  25.9266911   2.1878061
  38.6288810  26.7146103   1.0974474  39.0122415  26.5770306   1.7670775
  41.1749956  20.8529814   9.3705968  41.1345811  20.2079491   8.7851124
  41.9873274  20.7966431   9.6831380  41.2893109  20.7488781   9.3302917
  41.1322717  26.0638625   0.0254735  40.7339001  26.1740895  -0.7424444
  40.5173937  26.2720691   0.6081295  40.9821607  26.1112193  -0.0013965
  40.7396735  12.4050995   8.3657981  41.2968165  12.1764805   7.7336447
  40.4157800  13.1656661   8.0893193  40.7743145  12.4834832   8.2314478
  38.4579852  15.4918648   9.3309988  39.2091179  15.8070325   9.6449542
  38.6502429  15.2897819   8.5043910  38.5971266  15.5086030   9.2553384
  45.0957813  19.0493404   2.9147119  45.5212885  18.5267826   2.3617544
  44.7314733  19.6474241   2.3935742  45.1044416  19.0603631   2.7556129
  34.7311893  27.3457621   1.6744465  35.0458452  28.1594010   1.6822247
  35.1405306  26.9607840   2.3426624  34.8379991  27.4086324   1.7748556
  43.7713397  24.3728982  11.4240349  43.8810363  23.5837542  11.7797096
  44.1004294  24.2834918  10.6214687  43.8365803  24.2434834  11.3582740
  42.3210359  22.5545602   6.0075969  41.7731305  21.9303486   5.7396035
  42.7823388  22.7439874   5.2920049  42.3077568  22.4904653   5.8626400
  41.8868685  23.5596675   2.5385311  42.7067059  23.4159641   2.8001606
  41.6062763  24.1842874   3.0801748  41.9665429  23.6307027   2.6573250
  51.5582020  30.3037178   0.2581117  50.7019916  30.4645676   0.3090234
  51.6049674  29.4329242   0.2786178  51.4381132  30.1987980   0.2687183
  45.9423160  39.8399896  -3.9781651  45.1906060  39.4615434  -4.2065606
  46.3909172  39.8718329  -4.7262841  45.8972827  39.7885503  -4.1224149
  54.8675737  36.5723703   9.8641573  55.5742504  36.0775734   9.9928508
  55.0563672  37.0132785   9.1344231  55.0003643  36.5642054   9.7750619
  54.4033841  32.3629222   2.9012769  54.9489801  33.0414308   2.9606739
  54.3450718  32.2216683   2.0414351  54.4749756  32.4421223   2.7824830
  47.5207916  39.8518288  -1.7118879  47.6218279  39.0418642  -1.4021751
  46.9249662  39.7575234  -2.3419200  47.4480455  39.7183316  -1.7592640
  47.3608656  44.7695877  -0.3104023  48.0046111  45.2109041   0.0792136
  47.6864911  43.9649303  -0.3973764  47.5040485  44.7161072  -0.2658545
  40.7172961  35.8738574  -2.0866545  40.4823145  35.0406227  -2.1934276
  40.8558601  36.1543240  -2.9005344  40.7028623  35.7922078  -2.2224190
  43.0163048  28.0424305   0.8117763  42.3968080  27.4516952   0.6427778
  42.9146912  28.6335740   0.1782086  42.9100724  28.0428387   0.6922752
  50.1130944  29.7823847  -4.8549774  50.8111108  29.9611974  -4.3628311
  50.4283276  29.2594186  -5.4779385  50.2626281  29.7317619  -4.8747764
  42.7432181  31.5876587   3.0561332  42.6190878  32.1739032   3.6911151
  43.3950466  31.0936782   3.3573607  42.8205830  31.6015391   3.1947261
  50.3018879  36.1694292  -4.8669983  50.7412515  35.5611392  -4.4215210
  50.1523542  35.7901665  -5.6384518  50.3440345  36.0232763  -4.9150815
  47.7690522  34.7638304   2.3348843  48.4139525  34.2710747   2.0159791
  48.0092299  34.9063090   3.1614921  47.9001107  34.7115746   2.4098376
  50.3076613  37.6093209   1.9855735  50.5899856  36.8144615   1.7642491
  51.0362774  38.0873797   2.0060796  50.4566177  37.5627806   1.9558751
  48.2857807  25.1516243  -0.7728499  47.9561137  25.6027387  -1.4424801
  47.6102809  25.0732407  -0.2255493  48.1368244  25.2067379  -0.7905276
  60.2894702  36.7152572  -1.0408434  59.4592405  36.9263215  -0.8775017
  60.2403954  35.8889626  -1.3166150  60.1601437  36.6242178  -1.0571068
  42.2790285  40.7524245  -0.8110339  41.7957863  41.4774735  -0.8350755
  43.0913604  41.0500375  -0.7000181  42.3281033  40.9026599  -0.7983060
  48.3504439  39.5456426   1.7939476  47.8331381  39.1863841   1.1900784
  49.0478831  39.0218600   1.8045542  48.3770020  39.4154114   1.7069734
  52.0068031  39.9951240   7.7555649  52.0951377  39.8077380   8.6033859
  52.4357744  39.3488669   7.3560496  52.0830134  39.8714248   7.8227400
  49.5738491  39.2782400   6.7373311  49.0109326  38.8655010   7.2612972
  50.3359515  39.2035306   7.1566454  49.6032940  39.2059800   6.8766311
  45.1334483  41.2680421  -0.6590059  45.8355062  40.7532410  -0.6017302
  45.0531966  41.5954572   0.1456816  45.2258243  41.2394647  -0.5317267
  59.7848660  29.3622972   2.7541988  58.9477081  29.4325159   2.9889582
  59.7536891  29.3647467   1.8816290  59.6566942  29.3733199   2.6601536
  46.1813389  31.5056008   8.4690356  46.3533893  31.3961903   9.3175638
  46.7182747  32.1510413   8.2321548  46.2858393  31.5848010   8.5595453
  44.4585258  37.4586773  -1.1504451  45.2974157  37.6909706  -1.1030689
  44.4897027  36.5891084  -1.2197415  44.5866976  37.3643719  -1.1539806
  45.0837961  37.8787648   3.1508855  45.6236186  37.7358779   3.8212227
  44.4007907  38.2784399   3.5192881  45.0630115  37.9167319   3.3043276
  54.5078846  33.5578649  -1.6546121  55.2636361  33.9910163  -1.6157212
  54.6141170  32.9083419  -1.0811485  54.6349016  33.5256133  -1.5648095
  57.5459017  37.3851926  -0.9043718  57.1094249  37.3888669  -0.1484747
  57.2121932  38.0657425  -1.3364141  57.4321637  37.4864382  -0.8562885
  52.1188091  39.4260259  10.4199432  52.9028507  39.5391107  10.7855174
  51.9184685  38.6001396  10.6158118  52.2054116  39.3206978  10.5033818
  40.4875106  34.0987939   3.3043276  40.2213521  33.2827056   3.4634266
  40.5013670  34.1441095   2.4338792  40.4499828  33.9844844   3.1996758
  57.4656500  24.4265754   1.3385710  58.1082408  24.4963859   1.9247625
  57.7179521  23.7594977   0.8365252  57.5978632  24.3392103   1.3512989
  45.2373712  27.6366317   5.9510284  44.5445509  27.1663297   6.1971015
  45.8534040  27.4104622   6.5251991  45.2258242  27.5333449   6.0719436
  52.2758484  41.3370361   4.0665888  51.4773730  41.0969861   4.3239757
  52.7244495  41.3884754   4.8132936  52.2233095  41.3092752   4.2150812
  60.6803363  34.1032846  -2.0124081  61.3419797  33.5423514  -2.1128172
  60.0394775  33.6084877  -1.6871390  60.6832231  33.9469255  -1.9791741
  40.8968520  34.8846718   0.5855020  40.7144093  34.8593604  -0.2672687
  41.6318189  35.3545656   0.6243929  40.9782584  34.9508081   0.4652939
  56.9668194  35.1198228  -2.2712092  57.2023783  35.2643427  -3.0985241
  57.1157758  35.8840636  -1.8780578  57.0233997  35.2537283  -2.3348488
  43.9614271  31.6031721   7.0937129  44.6854244  31.5884752   7.5802024
  44.0630408  32.3127077   6.5959097  44.0832480  31.7056424   7.0915916
  51.3359221  35.0830806  11.9586076  50.5432202  35.3974318  12.1438696
  51.4508148  35.2982274  11.1206861  51.2354631  35.1614643  11.8624411
  54.0090540  31.8064797  -3.7518908  54.1037394  32.5454091  -3.2979283
  53.3849383  31.3782272  -3.3184344  53.9299570  31.8526118  -3.6210761
  52.2643014  34.9851010   6.8971373  52.8381875  34.3478254   7.0519937
  52.1857817  34.9855092   6.0281030  52.3376248  34.8916121   6.7917784
  40.8639430  31.7640219   0.7354087  41.4412933  31.6276670   1.3746332
  40.1653492  31.3076003   0.9899671  40.8460451  31.6762485   0.8676377
  47.6206732  33.4174275  -1.0507430  47.3625976  32.5846010  -1.0776130
  47.6755215  33.6431888  -1.8914929  47.5906510  33.3272046  -1.1787293
  52.7007782  25.5202725  -0.9503337  51.9964109  25.0311911  -0.7919418
  52.7492757  25.5325200  -1.8214893  52.6037834  25.4492373  -1.0563997
  46.5941444  30.9712037  -0.5642535  46.0191036  31.1304206   0.0721426
  46.2177121  30.3347446  -1.0274084  46.4544257  30.9009850  -0.5387977
  50.2614733  29.4435387   4.2949843  49.8729166  29.0189604   3.6402035
  49.5969431  29.6917536   4.8026870  50.1061661  29.4174108   4.2737711
  54.0841095  23.1410015   1.8073828  54.4651606  22.4588186   2.1941702
  53.2804379  22.8519617   1.6249492  54.0217556  22.9977064   1.8377884
  57.5863161  36.3559987   6.9056226  57.3501799  35.5248052   6.7868287
  58.2306390  36.3045594   7.4911070  57.6457832  36.2257675   6.9742120
  47.2361580  37.1455509  -2.3801038  47.8735526  36.9067256  -1.8349244
  47.6616651  37.3492667  -3.1147877  47.3937746  37.1406519  -2.4083880
  48.0432935  25.6464214  11.6736436  47.7286376  26.4163776  11.4105999
  47.7222868  25.0834470  11.0888663  47.9491854  25.6774482  11.5477786
  58.6099582  36.1404436   2.9684521  58.3045399  36.8732493   3.3297836
  57.8905798  35.7342365   2.6877307  58.4586924  36.1886169   2.9797658
  49.6183051  37.6227931  -0.7007251  49.6922060  37.4603103   0.1534599
  50.4352558  37.8118121  -0.9446770  49.7499410  37.6264674  -0.6109226
  64.3101374  32.7797437   2.2952865  64.2425874  32.7993396   1.4255451
  64.2957037  33.6227764   2.5208535  64.2980131  32.9071171   2.2005342
  43.3788808  37.9685794  -3.6712808  42.5526926  38.2147531  -3.7978529
  43.4400799  37.8897875  -2.8050750  43.2662975  37.9930743  -3.5623863
  54.7197721  24.1832594   5.6193954  55.4651313  23.9942405   5.2057380
  54.3035025  24.7090832   5.0607811  54.7682695  24.2334740   5.4758527
  62.0959992  31.5541823   0.5699459  62.6467913  30.9209892   0.8096551
  62.0804107  32.0857216   1.2614963  62.1745188  31.5390771   0.7078317
  48.7482382  35.3880420   5.1159353  48.2494076  36.0996188   5.1944241
  49.5582607  35.7081087   5.0777515  48.7938489  35.5407269   5.1215921
  46.0993553  42.5630057  -2.9033628  45.8793848  42.2727411  -2.1106961
  45.8788075  41.9045012  -3.4315716  46.0341147  42.4229765  -2.8644719
  45.0110500  34.6503373  -0.6377926  44.7223749  34.0240844  -0.1032199
  45.8793848  34.5923661  -0.5713246  45.0970752  34.5490917  -0.5486972
  55.7988398  29.7938157  -0.3195945  55.4553164  29.0728492   0.0311305
  55.8981440  29.5852008  -1.1617586  55.7630441  29.6562360  -0.3924265
  45.2142773  36.2898624  -4.7135561  45.9688741  36.6711663  -4.5000099
  44.6213386  36.7409768  -4.2588865  45.2379487  36.4127452  -4.6152683
  47.6749440  28.2461465  10.4121651  46.8649216  28.5519244  10.3011493
  48.1524127  28.9667047  10.5274235  47.6252919  28.3976066  10.4128722
  46.5341000  37.4607186   0.6604554  46.0121753  37.6007477   1.3456419
  46.9215020  36.7017850   0.8506671  46.5144701  37.3692709   0.7905630
  47.9607326  34.4911205  -3.9413955  47.7650108  35.0985939  -4.5353652
  48.1841671  33.7979149  -4.4222281  47.9641967  34.4788730  -4.0997874
  46.3585856  31.3765943  -3.8233087  47.0808507  31.5407101  -4.2829281
  45.8793848  32.0975607  -3.9293747  46.3949586  31.5064172  -3.9067473
  54.3179363  27.7129741   1.5563598  53.4790464  27.7391020   1.3201862
  54.3883730  28.3600477   2.1368945  54.2047757  27.8125867   1.6072715
  44.0093472  33.7824015   5.2821053  44.5214569  34.0608268   4.6329813
  43.7229815  34.5213309   5.6483866  44.0428335  33.9326369   5.2410931
  58.1936887  32.9197728  -1.1575160  58.1070862  33.0753154  -0.3040381
  57.7387367  33.5635804  -1.5315755  58.1140144  33.0373483  -1.0868053
  47.5277198  25.8750404   5.3422095  47.3360395  25.8905538   6.1921518
  48.3775794  26.0714078   5.3188750  47.6252920  25.9064755   5.4645390
  41.9124111  28.4041385   3.3205911  41.7709602  27.5525326   3.4450419
  42.1964674  28.4470046   2.4968117  41.9331957  28.2841135   3.2173535
  52.0662703  30.2408475  -2.5349600  51.8197417  30.1604226  -1.7012812
  52.3947826  29.4561943  -2.7287073  52.0783947  30.1134741  -2.4402077
  55.9610752  36.9491835   1.2537181  55.8225111  37.6472880   1.7585923
  55.1810750  36.7940491   0.8973363  55.8253979  37.0292001   1.2763455
  54.2988837  33.2488210   7.5059562  54.2936875  32.3768026   7.5101989
  55.0049831  33.4476379   7.0329018  54.4033841  33.1492084   7.4366598
  48.0259730  32.9765194   6.8773383  48.1703106  33.5566402   6.2416493
  48.3735379  33.3541490   7.5823237  48.0987192  33.1185898   6.8872378
  50.1979648  32.1755362   4.6598514  49.4502962  32.3686377   4.2546792
  50.3521173  31.3500582   4.4222636  50.1102075  32.0820474   4.5643920
  47.0987485  41.1667966   3.7434409  47.2477049  40.6070881   3.0907814
  47.8787487  41.2459967   4.1266928  47.2361579  41.0953531   3.7031359
  49.6240786  41.3382608   5.0218900  49.5484457  40.6691419   5.5769689
  49.5530645  42.0400397   5.5359567  49.6021393  41.3427516   5.1795748
  50.4381425  26.0705913   5.5493918  50.8954039  26.8029887   5.6766710
  50.5137753  25.6472378   6.3081174  50.5172395  26.1163151   5.6794994
  42.6814416  26.3171733   6.6383362  42.1456605  25.7052091   6.9544129
  42.7432181  26.8919869   7.2917028  42.6110049  26.3118660   6.7818788
  48.3163803  28.0608017   2.3935742  47.5259877  27.8799477   2.7153078
  48.7124425  27.2834969   2.3766036  48.2580679  27.9195478   2.4388290
  53.7007489  35.6950447   0.1195188  53.0252491  35.4635679   0.6208575
  53.7099865  35.0871630  -0.5062707  53.6025993  35.5709372   0.1011340
  50.8301633  30.5368276   6.8759241  50.7660774  31.3978232   6.7479378
  50.9698821  30.2200269   6.0754792  50.8417103  30.6168443   6.7387454
  49.5120727  33.2300415   1.0175444  49.0882976  33.4304914   0.2814462
  49.3365582  32.3829263   1.1299744  49.4231607  33.1349197   0.9249134
  49.0132420  44.7450928   3.4796901  49.5028351  44.0461717   3.2972566
  48.4416653  44.4474798   4.0672958  49.0016950  44.5977152   3.5397942
  44.8003172  33.7252467  -3.5496584  44.9567791  33.6599269  -2.6940592
  45.1403765  34.5001019  -3.7617904  44.8736407  33.8301665  -3.4541990
  51.3382316  33.1010350  -4.6803220  51.8797862  32.5980731  -4.2164600
  51.6528875  33.0475545  -5.4913735  51.4646713  33.0189771  -4.7319408
  55.2099424  37.3112998  12.4323692  56.0234289  37.0398146  12.5928824
  55.0494390  37.0120538  11.6283888  55.3069372  37.2267924  12.3369098
  52.4871586  27.9946655   5.3719080  52.7013555  27.3557569   4.8182434
  51.8705485  28.4392479   4.9426942  52.4276915  27.9656798   5.2269511
  41.3737433  30.9087417  -3.2335817  41.7536398  31.3271962  -3.8975549
  40.7992798  31.4900873  -2.9266973  41.3448758  31.0565276  -3.2859076
  54.6510674  29.6035720   6.3102387  53.8387355  29.2961610   6.3915560
  55.1100608  29.1234720   6.8745099  54.5991059  29.4872212   6.4056981
  51.8786314  21.1046590   0.3606423  51.0079872  21.0785312   0.3139732
  52.1326656  20.9323783  -0.4567732  51.7879874  21.0756734   0.2326560
  51.7464181  31.0095791  11.0931089  52.2163812  31.6337908  11.4798964
  51.7926061  30.3412767  11.6524304  51.8232057  31.0030472  11.2331161
  48.9035455  23.1152819   1.8179893  48.3873943  22.4233010   1.9431472
  48.3429384  23.7823596   1.7642492  48.7441968  23.1116077   1.8285959
  50.9727688  23.6545779   3.6472746  50.5859441  23.6794810   4.4286276
  50.4860626  23.0887458   3.1947262  50.8440197  23.5741530   3.6960649
  55.2220668  38.3719288   7.7046532  55.8600388  37.8779484   7.3708988
  54.5794759  38.2996688   7.1198759  55.2214894  38.2878296   7.5688887
  56.9477668  30.2208434   2.2712448  56.5205276  30.1334782   1.5160547
  56.3103721  30.3286209   2.8567292  56.7907275  30.2241094   2.2457889
  50.6384830  20.5412764   5.9383006  51.2677948  21.0773064   5.6604076
  50.8070693  20.4490123   6.7896571  50.7562625  20.6074127   6.0231534
  50.4398745  25.3283959   8.2109417  51.2672174  25.0569108   8.2668032
  50.4606591  26.1244801   8.5673235  50.5651595  25.4063713   8.2724600
  55.2774924  39.0639096   4.3451889  56.0667303  38.7128161   4.4653971
  55.4518522  39.8775485   4.0828523  55.4195206  39.1324953   4.3239757
  45.0168235  32.4747822   1.3979678  44.1756241  32.3751696   1.6058572
  45.2258243  33.2443302   1.7493999  44.9232927  32.5739865   1.4806993
  42.4943802  30.0967359  -0.7735571  42.1000499  30.1710371  -1.5485462
  41.9383919  30.4825305  -0.2227210  42.3546614  30.1649133  -0.8067912
  54.1308749  23.0748653  -1.0931693  54.3358342  23.0070961  -0.2474695
  53.8035173  23.8807474  -1.1610515  54.1123996  23.1834593  -0.9772037
  48.8284900  30.4029221   0.6477275  48.5248037  29.8485209   1.2487683
  48.1264320  30.5821431   0.1605310  48.6801109  30.3474003   0.6646981
  46.8903251  37.6178942   5.3549373  46.7823606  37.6281004   6.2211431
  47.0999032  38.4433722   5.1654327  46.9053362  37.7420017   5.4553465
  44.9077043  34.8691584   2.8171311  44.3164976  35.5101082   2.7874326
  45.6698066  35.2929201   2.7902610  44.9325303  35.0267423   2.8086458
  45.3037665  26.0293582   3.4839328  45.7639147  26.1032511   4.2214452
  45.3493772  26.8274836   3.1339150  45.3788221  26.1587729   3.5412085
  46.9521015  26.6960277   8.0511356  46.5606580  26.0493624   8.4867133
  47.1206878  27.2871712   8.6705611  46.9191926  26.6874545   8.2074061
  61.0267464  34.6997354   3.8148589  61.0850588  35.1484003   4.5608566
  60.3933932  35.1096167   3.3778669  60.9418759  34.8271089   3.8601137
  54.6666559  40.3200896   0.2503335  54.4686248  40.8091710  -0.4440453
  54.0454270  40.5242137   0.8287469  54.5454123  40.4217434   0.2326559
  48.7274537  32.0885793  -5.4086420  49.4716582  32.4760069  -5.1703471
  48.8735233  31.2443218  -5.2445933  48.8585122  32.0216265  -5.3492451
  50.6454113  23.8836052  -0.3754559  49.7990158  24.0558859  -0.5013209
  50.6425245  23.0785395  -0.0388731  50.5201263  23.7897080  -0.3443432
  51.7152413  27.6611266   0.4907499  51.2412367  27.1353028   1.0012810
  52.0870549  27.1140739  -0.0777640  51.7002302  27.5027263   0.4822646
  42.0925443  29.6582773   5.8591045  42.9551056  29.5578482   5.7728374
  41.7617226  29.0777482   5.2976617  42.1710640  29.5574399   5.7636450
  57.9789144  32.7213642   1.9014279  57.7387367  31.8820057   1.9056706
  58.4581151  32.8013808   2.6255053  58.0141327  32.6095041   2.0089082
  59.9794331  29.5015099  -0.1456462  59.7404101  29.4610933  -0.9835677
  60.1428232  30.3486251  -0.0190740  59.9684634  29.6207184  -0.2502980
  56.5840361  33.8865048   5.7848584  57.3074560  33.4337575   5.6059604
  56.3190323  34.1669714   5.0020911  56.6521634  33.8616017   5.6427299
  45.4527229  28.4825222   2.5201463  44.8280299  28.4943614   1.9127416
  45.1172824  28.9585397   3.1692703  45.3112721  28.5543739   2.5258031
  42.1652905  36.5425682   3.9605227  41.6352829  35.8518121   4.0100202
  42.4377998  36.5335867   3.1317936  42.1277627  36.4392814   3.8452643
  52.3659150  33.9848926   3.9343599  51.7516143  33.4406977   4.2292234
  52.8826435  33.4713163   3.4549415  52.3514813  33.8285335   3.9067827
  51.6055448  35.0553196   1.6687897  51.1783056  34.4302915   1.2353333
  51.5980392  34.7728118   2.4946905  51.5414589  34.9205977   1.7267725
  44.7217975  30.0918369   4.7376331  44.8811461  29.3361694   5.1428053
  44.5410868  30.6409309   5.3917069  44.7183334  30.0612183   4.8939037
  52.6638278  22.2579605   5.2927121  52.1678839  22.4543279   4.6018688
  53.4207340  22.6572273   5.1215922  52.7025102  22.3457339   5.1647258
  49.9341157  25.9321951   1.8830431  49.9583644  25.3982063   1.1943211
  50.1852631  25.4239260   2.5456022  49.9751076  25.7782855   1.8795076
  37.4448747  33.2153446   1.3173575  37.3392196  33.1700290   0.4525659
  36.6948967  33.5607226   1.5987860  37.3184350  33.2594354   1.2310905
  46.2142479  24.6592769   1.2636176  46.2540851  25.1601976   1.9770883
  45.3892144  24.7503163   0.9942099  46.0982005  24.7474585   1.3286714
  48.3972092  34.2253509   9.3656470  47.5467723  34.3625223   9.5014115
  48.5600220  33.4917287   9.8104172  48.2955956  34.1367610   9.4512069
  47.6356843  31.1753279   3.5610075  46.8048772  31.3427097   3.3545323
  47.5808360  30.7989230   4.3458960  47.5046258  31.1443010   3.6458603
  45.4440626  24.6662172   9.1966485  46.0693329  24.1224305   9.4695918
  44.9891106  24.1857089   8.6274276  45.4688887  24.5151653   9.1528079
  59.0175675  32.8491459   4.2879133  59.6093515  33.4888710   4.3197331
  59.4534669  32.1514496   4.5771200  59.1694106  32.8409809   4.3359966
  50.8469065  37.2708831   4.9137027  50.3394156  37.8244678   5.3577658
  50.5495711  37.3317121   4.0955802  50.7273950  37.3615142   4.8585484
  53.0131247  25.6362151   3.7561690  53.4386318  25.1834677   3.1445217
  52.3988240  25.0822222   4.0326478  52.9859892  25.4876127   3.7066716
  56.0424816  30.0636678  -3.4117724  55.3716006  30.6066380  -3.5404659
  56.7364566  30.5331533  -3.6536029  56.0453684  30.2134949  -3.4662196
  50.0911550  42.2033390   1.8194034  49.8677204  41.4452219   2.1878061
  49.6021393  42.2331411   1.0974474  49.9854999  42.0955614   1.7670775
  56.2052944  26.5192561  -0.5027351  56.5580554  26.0922284   0.1718448
  55.3467745  26.4343405  -0.3726275  56.1302388  26.4437302  -0.3832340
  44.9036629  29.1500081  -2.4444504  44.1848618  29.5664213  -2.1771641
  45.2748991  29.7154320  -2.9952866  44.8528560  29.2949362  -2.4861697
  54.2036209  29.7827930   3.4457491  54.1834137  29.6011225   4.2992270
  54.2515410  30.6539948   3.4217075  54.2070850  29.8844468   3.5680786
  52.1482539  36.3715122   9.3705968  52.1078394  35.7264799   8.7851124
  52.9605858  36.3151739   9.6831380  52.2625693  36.2674089   9.3302917
  48.7390007  42.4233848  -0.7268881  48.3250405  41.7607978  -1.1165040
  49.4237381  42.5711706  -1.2473187  48.7788379  42.3474506  -0.8612384
  52.1055301  41.5823933   0.0254735  51.7071584  41.6926203  -0.7424444
  51.4906521  41.7905999   0.6081295  51.9554190  41.6297501  -0.0013965
  53.5541020  28.1477585  -3.6769375  53.3254713  28.1710287  -4.5191016
  53.8139096  27.3235052  -3.5574364  53.5587208  28.0293665  -3.7844177
  47.8360248  30.0012058   5.9255726  47.3239151  29.3933241   6.2840757
  47.6639744  30.7168651   6.3929701  47.7349885  30.0175358   6.0471949
  42.6825963  28.4449634   8.5758087  42.5128553  29.1051008   8.0306294
  42.2391913  28.6556195   9.2970576  42.5925296  28.5735616   8.6019717
  46.6085782  26.6854132  -2.3815179  47.0843148  27.0471211  -3.0164998
  46.1074382  27.3410599  -2.1015036  46.6051141  26.8348320  -2.4338438
  51.7129318  27.9236303   8.3657981  52.2700749  27.6950112   7.7336447
  51.3890383  28.6841969   8.0893193  51.7475729  28.0020140   8.2314478
  39.5828027  31.3496499   3.8346577  39.0354747  30.6797145   3.9527445
  40.3720405  30.9826347   3.8990044  39.6180211  31.1961486   3.8615278
  49.4312436  31.0103956   9.3309988  50.1823763  31.3255633   9.6449542
  49.6235012  30.8083127   8.5043910  49.5703850  31.0271338   9.2553384
  56.2797726  27.1377523  -3.4266216  56.2791952  26.9826179  -2.5681940
  56.0753906  27.9840510  -3.4824831  56.2497504  27.2398143  -3.3078277
  38.3414997  30.5617307   0.9892600  38.1636758  30.1093916   1.7147516
  38.0534019  31.3643468   1.1731078  38.2727950  30.6139865   1.1236103
  54.0038578  31.8175024   0.2269991  54.4992243  31.0998019   0.1874011
  53.1938354  31.5145822   0.1124477  53.9582471  31.6672671   0.2043716
  40.0787467  33.0945031  -1.8985641  39.2132986  33.0830721  -2.0102870
  40.1786282  32.9075254  -1.0514501  39.9661634  33.0651092  -1.7896696
  56.0690397  34.5678712   2.9147119  56.4945468  34.0453134   2.3617544
  55.7047317  35.1659549   2.3935742  56.0776999  34.5788939   2.7556129
  45.7044476  42.8642929   1.6744465  46.0191035  43.6779318   1.6822247
  46.1137890  42.4793148   2.3426624  45.8112574  42.9271632   1.7748556
  52.6568996  38.2812976  -0.7551723  53.1280174  38.9953239  -0.5861738
  52.9929175  37.6811726  -0.2191854  52.7764111  38.2984440  -0.6519347
  54.7445981  39.8914289  11.4240349  54.8542946  39.1022850  11.7797096
  55.0736877  39.8020226  10.6214687  54.8098387  39.7620142  11.3582740
  49.5738491  23.0540447   6.2006372  49.7066397  22.2571440   6.5287347
  49.9583644  23.5806850   6.7804647  49.6494820  23.0140363   6.3349874
  53.2942942  38.0730910   6.0075969  52.7463888  37.4488794   5.7396035
  53.7555971  38.2625182   5.2920049  53.2810152  38.0089960   5.8626400
  52.6470846  19.9770773   2.7987465  51.8416810  19.8668502   3.1155303
  52.5177582  20.0783229   1.9417331  52.5090979  19.9754443   2.7195505
  56.1036807  26.1416265   3.3927162  55.5199796  26.6425471   2.9804729
  56.4241101  25.6345821   2.7591485  56.0649982  26.1408100   3.2385669
  47.2326938  23.0499622   4.4484265  47.7771351  22.7090749   5.0388607
  47.2863874  23.9085083   4.5905550  47.3216057  23.1254881   4.5566139
  43.0457497  36.8116038   1.3223073  43.6502354  36.7711872   0.6936894
  42.8384809  37.6587190   1.3527129  43.1046394  36.9304040   1.2339190
  52.8601269  39.0781983   2.5385311  53.6799643  38.9344949   2.8001606
  52.5795346  39.7028182   3.0801748  52.9398012  39.1492335   2.6573250
  38.2808779  35.7950655   1.1921996  38.1833057  34.9846927   1.5012053
  39.0637649  35.7742449   0.8068264  38.3824915  35.6717746   1.1808859
  53.9895632  43.5609613   0.8117763  53.3700663  42.9702260   0.6427778
  53.8879495  44.1521048   0.1782086  53.8833307  43.5613695   0.6922752
  53.7164765  47.1061895   3.0561332  53.5923461  47.6924340   3.6911151
  54.3683049  46.6122090   3.3573607  53.7938414  47.1200699   3.1947261
  57.1545973  47.0241316   8.4690356  57.3266476  46.9147211   9.3175638
  57.6915330  47.6695721   8.2321548  57.2590977  47.1033318   8.5595453
  63.0920674  54.9445567  10.4199432  63.8761091  55.0576415  10.7855174
  62.8917269  54.1186704  10.6158118  63.1786700  54.8392286  10.5033818
  51.4607690  49.6173247   3.3043276  51.1946105  48.8012364   3.4634266
  51.4746254  49.6626402   2.4338792  51.4232412  49.5030152   3.1996758
  56.2106296  43.1551625   5.9510284  55.5178093  42.6848605   6.1971015
  56.8266623  42.9289930   6.5251991  56.1990826  43.0518757   6.0719436
  54.9346855  47.1217029   7.0937129  55.6586827  47.1070060   7.5802024
  55.0362991  47.8312384   6.5959097  55.0565064  47.2241732   7.0915916
  62.3091804  50.6016114  11.9586076  61.5164785  50.9159626  12.1438696
  62.4240731  50.8167582  11.1206861  62.2087215  50.6799951  11.8624411
  61.2347317  44.9620694   4.2949843  60.8461749  44.5374912   3.6402035
  60.5702015  45.2102844   4.8026870  61.0794244  44.9359416   4.2737711
  65.0573678  38.6595323   1.8073828  65.4384190  37.9773494   2.1941702
  64.2536962  38.3704925   1.6249492  64.9950140  38.5162372   1.8377884
  59.0165519  41.1649521  11.6736436  58.7018960  41.9349084  11.4105999
  58.6955451  40.6019777  11.0888663  58.9224438  41.1959790  11.5477786
  65.6930304  39.7017902   5.6193954  66.4383896  39.5127713   5.2057380
  65.2767609  40.2276140   5.0607811  65.7415278  39.7520048   5.4758527
  58.6482024  43.7646773  10.4121651  57.8381800  44.0704552  10.3011493
  59.1256711  44.4852355  10.5274235  58.5985503  43.9161374  10.4128722
  54.9826056  49.3009323   5.2821053  55.4947153  49.5793576   4.6329813
  54.6962398  50.0398617   5.6483866  55.0160919  49.4511677   5.2410931
  58.5009781  41.3935711   5.3422095  58.3092978  41.4090846   6.1921518
  59.3508377  41.5899386   5.3188750  58.5985503  41.4250063   5.4645390
  52.8856694  43.9226693   3.3205911  52.7442186  43.0710634   3.4450419
  53.1697258  43.9655354   2.4968117  52.9064540  43.8026443   3.2173535
  58.9992314  48.4950502   6.8773383  59.1435690  49.0751710   6.2416493
  59.3467962  48.8726798   7.5823237  59.0719775  48.6371206   6.8872378
  61.4114008  41.5891221   5.5493918  61.8686622  42.3215195   5.6766710
  61.4870337  41.1657686   6.3081174  61.4904978  41.6348459   5.6794994
  53.6546999  41.8357041   6.6383362  53.1189189  41.2237399   6.9544129
  53.7164764  42.4105176   7.2917028  53.5842632  41.8303968   6.7818788
  59.2896386  43.5793325   2.3935742  58.4992461  43.3984785   2.7153078
  59.6857009  42.8020277   2.3766036  59.2313262  43.4380786   2.4388290
  61.8034216  46.0553584   6.8759241  61.7393358  46.9163540   6.7479378
  61.9431404  45.7385577   6.0754792  61.8149687  46.1353750   6.7387454
  66.1832007  52.8298306  12.4323692  66.9966873  52.5583454  12.5928824
  66.0226974  52.5305846  11.6283888  66.2801956  52.7453232  12.3369098
  63.4604169  43.5131963   5.3719080  63.6746139  42.8742877   4.8182434
  62.8438069  43.9577787   4.9426942  63.4009499  43.4842106   5.2269511
  65.6243257  45.1221028   6.3102387  64.8119939  44.8146918   6.3915560
  66.0833192  44.6420028   6.8745099  65.5723642  45.0057520   6.4056981
  62.8518898  36.6231898   0.3606423  61.9812456  36.5970619   0.3139732
  63.1059239  36.4509091  -0.4567732  62.7612458  36.5942042   0.2326560
  62.7196765  46.5281099  11.0931089  63.1896396  47.1523216  11.4798964
  62.7658645  45.8598075  11.6524304  62.7964641  46.5215780  11.2331161
  59.8768038  38.6338127   1.8179893  59.3606527  37.9418318   1.9431472
  59.3161967  39.3008904   1.7642492  59.7174552  38.6301384   1.8285959
  61.9460272  39.1731087   3.6472746  61.5592025  39.1980118   4.4286276
  61.4593209  38.6072765   3.1947262  61.8172781  39.0926838   3.6960649
  61.6117414  36.0598072   5.9383006  62.2410532  36.5958372   5.6604076
  61.7803276  35.9675431   6.7896571  61.7295208  36.1259435   6.0231534
  61.4131329  40.8469267   8.2109417  62.2404758  40.5754416   8.2668032
  61.4339175  41.6430109   8.5673235  61.5384179  40.9249021   8.2724600
  56.2770249  41.5478890   3.4839328  56.7371731  41.6217819   4.2214452
  56.3226356  42.3460144   3.1339150  56.3520804  41.6773037   3.5412085
  57.9253599  42.2145585   8.0511356  57.5339164  41.5678932   8.4867133
  58.0939462  42.8057020   8.6705611  57.8924509  42.2059853   8.2074061
  53.0658027  45.1768081   5.8591045  53.9283640  45.0763790   5.7728374
  52.7349810  44.5962790   5.2976617  53.1443223  45.0759707   5.7636450
  56.4259813  44.0010530   2.5201463  55.8012883  44.0128922   1.9127416
  56.0905408  44.4770705   3.1692703  56.2845305  44.0729047   2.5258031
  55.6950558  45.6103677   4.7376331  55.8544045  44.8547002   5.1428053
  55.5143452  46.1594617   5.3917069  55.6915917  45.5797491   4.8939037
  63.6370861  37.7764913   5.2927121  63.1411422  37.9728587   4.6018688
  64.3939923  38.1757581   5.1215922  63.6757686  37.8642647   5.1647258
  60.9073741  41.4507259   1.8830431  60.9316228  40.9167371   1.1943211
  61.1585214  40.9424568   2.5456022  60.9483659  41.2968163   1.8795076
  48.4181331  48.7338754   1.3173575  48.3124780  48.6885598   0.4525659
  47.6681551  49.0792534   1.5987860  48.2916934  48.7779662   1.2310905
  57.1875063  40.1778077   1.2636176  57.2273435  40.6787284   1.9770883
  56.3624728  40.2688471   0.9942099  57.0714589  40.2659893   1.3286714
  59.3704676  49.7438817   9.3656470  58.5200306  49.8810531   9.5014115
  59.5332804  49.0102595   9.8104172  59.2688539  49.6552918   9.4512069
  58.6089426  46.6938587   3.5610075  57.7781356  46.8612405   3.3545323
  58.5540944  46.3174538   4.3458960  58.4778841  46.6628318   3.6458603
  56.4173210  40.1847480   9.1966485  57.0425913  39.6409613   9.4695918
  55.9623690  39.7042397   8.6274276  56.4421470  40.0336961   9.1528079
  63.9863830  41.1547459   3.7561690  64.4118902  40.7019985   3.1445217
  63.3720824  40.6007530   4.0326478  63.9592476  41.0061435   3.7066716
  63.1215123  51.8900430   9.3705968  63.0810978  51.2450107   8.7851124
  63.9338441  51.8337047   9.6831380  63.2358276  51.7859397   9.3302917
  58.8092832  45.5197366   5.9255726  58.2971735  44.9118549   6.2840757
  58.6372328  46.2353959   6.3929701  58.7082469  45.5360666   6.0471949
  53.6558546  43.9634942   8.5758087  53.4861137  44.6236316   8.0306294
  53.2124496  44.1741503   9.2970576  53.5657880  44.0920924   8.6019717
  62.6861902  43.4421611   8.3657981  63.2433332  43.2135420   7.7336447
  62.3622967  44.2027277   8.0893193  62.7208312  43.5205448   8.2314478
  50.5560611  46.8681807   3.8346577  50.0087330  46.1982453   3.9527445
  51.3452989  46.5011655   3.8990044  50.5912794  46.7146794   3.8615278
  60.4045019  46.5289264   9.3309988  61.1556346  46.8440941   9.6449542
  60.5967596  46.3268435   8.5043910  60.5436433  46.5456646   9.2553384
  49.3147580  46.0802615   0.9892600  49.1369341  45.6279224   1.7147516
  49.0266602  46.8828776   1.1731078  49.2460533  46.1325173   1.1236103
  60.5471075  38.5725755   6.2006372  60.6798980  37.7756748   6.5287347
  60.9316227  39.0992158   6.7804647  60.6227404  38.5325671   6.3349874
  63.6203430  35.4956081   2.7987465  62.8149394  35.3853810   3.1155303
  63.4910165  35.5968536   1.9417331  63.4823563  35.4939751   2.7195505
  58.2059521  38.5684930   4.4484265  58.7503934  38.2276057   5.0388607
  58.2596457  39.4270391   4.5905550  58.2948641  38.6440189   4.5566139
   1.9284359  59.0163412  36.3966331   1.6137800  59.7066891  36.8286754
   1.4111300  58.9608194  35.6951832   1.8048829  59.1098301  36.3563280
   6.2198804  67.2384618  41.6787208   5.3827225  67.3086805  41.9134802
   6.1887035  67.2409113  40.8061510   6.0917086  67.2494845  41.5846756
   3.9006643  62.3027400  40.2630930   4.5432552  62.3725504  40.8492845
   4.1529664  61.6356623  39.7610472   4.0328776  62.2153748  40.2758209
   6.3388146  67.0772037  35.9942893   6.0824711  66.2651979  35.8040776
   7.1817460  67.0849604  35.7673081   6.4254171  66.9584034  35.9327711
   1.1547864  62.0594240  44.5439174   1.9001456  61.8704051  44.1302600
   0.7385169  62.5852478  43.9853031   1.2032838  62.1096386  44.4003747
   8.5310135  69.4303469  39.4944679   9.0818057  68.7971538  39.7341771
   8.5154250  69.9618861  40.1860183   8.6095331  69.4152417  39.6323537
   2.2338541  67.6699802  38.6049275   1.8903307  66.9490138  38.9556525
   2.3331584  67.4613654  37.7627634   2.1980584  67.5324006  38.5320955
   1.3458894  57.1257434  38.3432981   1.4642462  57.5833897  37.6100284
   1.1721070  56.3202695  38.0569199   1.3378065  57.0751206  38.1933915
   3.8192580  61.5042063  37.3116293   3.2066893  61.9912465  37.6970025
   3.9156755  60.8285554  37.8553944   3.7430477  61.4760372  37.4495151
   6.4144474  67.3776745  38.7788759   6.1754244  67.3372579  37.9409543
   6.5778376  68.2247897  38.9054480   6.4034778  67.4968830  38.6742240
   2.6403087  64.3954207  38.4217869   2.9930697  63.9683930  39.0963668
   1.7817889  64.3105051  38.5518945   2.5652532  64.3198948  38.5412880
   4.0727147  59.5172619  39.3502182   3.5658012  58.8101758  39.2823359
   4.8694581  59.1865808  39.4803258   4.1154387  59.3645770  39.3601177
   2.7147869  65.0139168  35.4979004   2.7142096  64.8587825  36.3563280
   2.5104049  65.8602155  35.4420389   2.6847647  65.1159789  35.6166943
   2.5386950  64.0177911  42.3172382   1.9549939  64.5187117  41.9049949
   2.8591244  63.5107467  41.6836705   2.5000126  64.0169746  42.1630889
   4.4883303  46.0301304  21.3613454   4.4577307  46.8845940  21.5331723
   5.0864652  45.7296596  21.9199597   4.5720461  46.1117800  21.4688256
   0.9976704  51.3863480  35.7226840   1.7043472  50.8915511  35.8513775
   1.1864640  51.8272562  34.9929498   1.1304610  51.3781831  35.6335886
   2.3099878  48.6053606  19.6331764   2.1939404  49.3561292  20.0623902
   3.1055764  48.3477559  19.8827851   2.4104467  48.6788453  19.7335855
   1.6235183  35.9541543  23.3306378   1.3088624  36.6445022  23.7626800
   1.1062124  35.8986326  22.6291879   1.4999653  36.0476432  23.2903327
   6.4195669  51.5292349  24.8176833   5.5893372  51.7402992  24.9810250
   6.3704922  50.7029403  24.5419117   6.2902405  51.4381955  24.8014198
   5.9149628  44.1762749  28.6127254   5.0778049  44.2464936  28.8474849
   5.8837858  44.1787244  27.7401557   5.7867910  44.1872976  28.5186802
   0.6379813  48.3718426  24.2039146   1.3937328  48.8049940  24.2428055
   0.7442138  47.7223196  24.7773782   0.7649984  48.3395910  24.2937171
   3.6759984  52.1991703  24.9541549   3.2395216  52.2028446  25.7100520
   3.3422900  52.8797202  24.5221126   3.5622604  52.3004159  25.0022381
   3.5957467  39.2405531  27.1970977   4.2383376  39.3103636  27.7832892
   3.8480488  38.5734754  26.6950519   3.7279599  39.1531880  27.2098256
   6.8104331  48.9172623  23.8461186   7.4720765  48.3563291  23.7457095
   6.1695743  48.4224654  24.1713877   6.8133198  48.7609032  23.8793526
   3.0969161  49.9338005  23.5873175   3.3324751  50.0783204  22.7600025
   3.2458725  50.6980413  23.9804688   3.1534965  50.0677060  23.5236779
   4.9259618  48.7739671  21.4242779   5.2567835  49.3067311  20.8182874
   5.4992706  48.8278559  22.0804730   5.0593297  48.8609240  21.4320560
   6.0338970  44.0150168  22.9282940   5.7775534  43.2030110  22.7380823
   6.8768284  44.0227735  22.7013128   6.1204995  43.8962166  22.8667757
   3.7164129  51.1699764  32.7641493   3.4802766  50.3387829  32.6453553
   4.3607358  51.1185371  33.3496337   3.7758800  51.0397452  32.8327386
   4.7400550  50.9544213  28.8269787   4.4346367  51.6872270  29.1883103
   4.0206765  50.5482142  28.5462573   4.5887892  51.0025946  28.8382924
  10.4402342  47.5937214  28.1538132  10.3726842  47.6133173  27.2840718
  10.4258004  48.4367541  28.3793802  10.4281098  47.7210948  28.0590608
   8.2260959  46.3681600  26.4284726   8.7768881  45.7349669  26.6681818
   8.2105074  46.8996993  27.1200230   8.3046155  46.3530548  26.5663584
   1.9289365  44.6077934  25.5389322   1.5854131  43.8868269  25.8896572
   2.0282408  44.3991785  24.6967680   1.8931408  44.4702137  25.4661002
   2.3902394  51.0703638  21.0813310   2.9560427  51.7296848  20.9971853
   1.7430298  51.4153336  21.5529712   2.3781151  51.2185579  21.1386067
   4.3237855  47.7337505  24.7010107   4.2371829  47.8892931  25.5544886
   3.8688334  48.3775581  24.3269512   4.2441111  47.8513260  24.7717214
   2.0911719  51.7631612  27.1122448   1.9526079  52.4612657  27.6171190
   1.3111717  51.6080268  26.7558629   1.9554946  51.8431778  27.1348722
   3.5865092  51.1209865  17.8738947   3.2071901  50.3347003  17.8668236
   2.9231338  51.6696722  17.7310591   3.4323567  51.0854689  17.8519744
   1.0409718  34.0635565  25.2773028   1.1593286  34.5212028  24.5440330
   0.8671894  33.2580826  24.9909245   1.0328889  34.0129337  25.1273961
   1.8325191  53.3655356  18.2090633   1.9145028  54.1722343  17.8852084
   2.3174933  53.3851316  18.9331406   1.9162349  53.4876019  18.2677531
   1.3400391  52.1252775  38.2908959   2.1535257  51.8537923  38.4514091
   1.1795358  51.8260315  37.4869154   1.4370340  52.0407701  38.1954364
   1.3521635  53.1859065  33.5631799   1.9901356  52.6919261  33.2294255
   0.7095727  53.1136465  32.9784026   1.3515862  53.1018073  33.4274154
   3.0778635  45.0348211  28.1297715   2.6506243  44.9474559  27.3745814
   2.4404688  45.1425986  28.7152559   2.9208243  45.0380871  28.1043156
   1.4075892  53.8778873  30.2037156   2.1968270  53.5267938  30.3239238
   1.5819490  54.6915262  29.9413790   1.5496174  53.9464730  30.1825024
   3.5143404  38.4420194  24.2456340   2.9017717  38.9290596  24.6310072
   3.6107579  37.7663685  24.7893991   3.4381301  38.4138503  24.3835198
   7.1568432  49.5137131  29.6733856   7.2151555  49.9623780  30.4193832
   6.5234899  49.9235944  29.2363936   7.0719727  49.6410866  29.7186404
   4.1090111  47.5353419  27.7599546   3.8688334  46.6959834  27.7641973
   4.5882118  47.6153585  28.4840320   4.1442295  47.4234818  27.8674349
   6.1095298  44.3154876  25.7128805   5.8705068  44.2750710  24.8749590
   6.2729199  45.1626028  25.8394526   6.0985602  44.4346961  25.6082287
   2.7141328  48.7004825  31.6433850   3.4375527  48.2477352  31.4644870
   2.4491291  48.9809491  30.8606178   2.7822602  48.6755794  31.5012566
   5.1476642  47.6631236  30.1464400   5.7394483  48.3028487  30.1782598
   5.5835637  46.9654273  30.4356467   5.2995074  47.6549586  30.1945233
   2.1725784  44.8776455  22.4467543   1.5016974  45.4206157  22.3180608
   2.8665534  45.3471310  22.2049238   2.1754651  45.0274726  22.3923070
   2.3353911  41.3332338  25.3557916   2.6881521  40.9062061  26.0303715
   1.4768713  41.2483182  25.4858992   2.2603356  41.2577079  25.4752926
   3.7677971  36.4550750  26.2842228   3.2608836  35.7479890  26.2163406
   4.5645405  36.1243939  26.4143305   3.8105210  36.3023901  26.2941223
   5.9698111  50.9715677  19.2683093   6.3531717  51.7207033  19.4981190
   5.1742225  51.2181496  19.0095082   5.9091893  51.1185370  19.2640666
   2.4098693  41.9517300  22.4319050   2.4092920  41.7965956  23.2903327
   2.2054873  42.7980287  22.3760436   2.3798471  42.0537920  22.5506990
   2.1991364  49.3818489  28.7732386   2.6246436  48.8592911  28.2202811
   1.8348284  49.9799326  28.2521009   2.2077967  49.3928716  28.6141396
   0.8746948  54.7054066  37.2825616   0.9843914  53.9162627  37.6382363
   1.2037845  54.6160003  36.4799954   0.9399354  54.5759919  37.2168006
   2.2337774  40.9556042  29.2512429   1.6500763  41.4565248  28.8389996
   2.5542068  40.4485598  28.6176752   2.1950950  40.9547877  29.0970936
  15.4615887  61.5486612  21.3613454  15.4309891  62.4031248  21.5331723
  16.0597235  61.2481904  21.9199597  15.5453045  61.6303108  21.4688256
   8.6615572  60.6362263  26.1166384   7.8053467  60.7970761  26.1675501
   8.7083225  59.7654327  26.1371445   8.5414683  60.5313065  26.1272450
  11.9709288  66.9048788  35.7226840  12.6776055  66.4100819  35.8513775
  12.1597223  67.3457870  34.9929498  12.1037194  66.8967139  35.6335886
  11.5067393  62.6954307  28.7598036  12.0523353  63.3739393  28.8192005
  11.4484269  62.5541767  27.8999617  11.5783307  62.7746308  28.6410096
  13.2832461  64.1238914  19.6331764  13.1671987  64.8746600  20.0623902
  14.0788348  63.8662867  19.8827851  13.3837051  64.1973761  19.7335855
   7.2164495  60.1148932  21.0035493   7.9144659  60.2937059  21.4956956
   7.5316827  59.5919271  20.3805882   7.3659832  60.0642704  20.9837503
   7.4052430  66.5019377  20.9915284   7.8446066  65.8936477  21.4370057
   7.2557093  66.1226750  20.2200749   7.4473896  66.3557848  20.9434452
   4.8724073  65.0963389  28.1934110   5.5173076  64.6035832  27.8745058
   5.1125850  65.2388175  29.0200188   5.0034658  65.0440831  28.2683643
   7.4110165  67.9418294  27.8441002   7.6933407  67.1469700  27.6227758
   8.1396325  68.4198882  27.8646063   7.5599728  67.8952891  27.8144017
   5.3891358  55.4841328  25.0856767   5.0594688  55.9352472  24.4160466
   4.7136360  55.4057492  25.6329774   5.2401795  55.5392464  25.0679991
  11.0061767  64.8546558  17.9446053  10.9213062  65.7107525  18.0895622
  11.4946150  64.5790882  18.6128213  11.0650664  64.9403879  18.0648135
  12.5967766  51.4726851  23.3306378  12.2821207  52.1630330  23.7626800
  12.0794708  51.4171633  22.6291879  12.4732237  51.5661740  23.2903327
  11.9380200  61.4731352  19.4443789  11.4091671  61.6890986  20.1041095
  12.4605220  62.1667491  19.3644758  11.9368653  61.6074489  19.5299388
  17.3928253  67.0477657  24.8176833  16.5625956  67.2588300  24.9810250
  17.3437505  66.2214711  24.5419117  17.2634988  66.9567263  24.8014198
   9.1101582  70.3276325  33.6140916   9.1984928  70.1402465  34.4619126
   9.5391295  69.6813754  33.2145762   9.1863685  70.2039333  33.6812667
   8.2857022  61.6160221  16.7220177   8.5253026  61.8238205  15.9095520
   8.6072863  60.8117730  16.8309122   8.3694180  61.5274322  16.6180730
   3.5947312  53.5453617  20.5679715   4.3493280  53.9131934  20.3296765
   3.4174847  53.9193171  21.3358895   3.6801791  53.6551805  20.6464604
  16.8882211  59.6948057  28.6127254  16.0510632  59.7650244  28.8474849
  16.8570442  59.6972552  27.7401557  16.7600494  59.7058284  28.5186802
   3.2846940  61.8381093  34.3275623   3.4567444  61.7286988  35.1760904
   3.8216298  62.4835498  34.0906815   3.3891944  61.9173095  34.4180720
   1.9504377  55.9523936  17.2657828   1.7679950  56.1695817  16.4398821
   2.8129990  56.0662948  17.3216442   2.0508967  56.0013834  17.1512315
   7.6304096  52.9550346  20.3006852   8.3590257  52.7766301  19.8545008
   7.7198989  53.7968426  20.5114030   7.7510758  53.0534225  20.2660370
  11.6112397  63.8903734  24.2039146  12.3669912  64.3235248  24.2428055
  11.7174721  63.2408503  24.7773782  11.7382568  63.8581218  24.2937171
  14.6492568  67.7177011  24.9541549  14.2127800  67.7213753  25.7100520
  14.3155484  68.3982510  24.5221126  14.5355188  67.8189467  25.0022381
   9.2221642  69.7585344  36.2784699  10.0062058  69.8716192  36.6440441
   9.0218236  68.9326481  36.4743385   9.3087667  69.6532063  36.3619085
  14.5690051  54.7590839  27.1970977  15.2115959  54.8288943  27.7832892
  14.8213072  54.0920062  26.6950519  14.7012183  54.6717187  27.2098256
   2.3407263  57.9691402  31.8095551   1.6479060  57.4988382  32.0556282
   2.9567591  57.7429707  32.3837258   2.3291793  57.8658534  31.9304703
  17.7836914  64.4357931  23.8461186  18.4453348  63.8748599  23.7457095
  17.1428326  63.9409962  24.1713877  17.7865782  64.2794340  23.8793526
  14.0701745  65.4523313  23.5873175  14.3057334  65.5968512  22.7600025
  14.2191309  66.2165721  23.9804688  14.1267548  65.5862368  23.5236779
   1.0647822  61.9356806  32.9522396   1.7887795  61.9209837  33.4387291
   1.1663959  62.6452161  32.4544364   1.1866032  62.0381509  32.9501183
  15.8992202  64.2924979  21.4242779  16.2300419  64.8252619  20.8182874
  16.4725290  64.3463867  22.0804730  16.0325881  64.3794548  21.4320560
   8.4392772  65.4155891  37.8171343   7.6465753  65.7299403  38.0023963
   8.5541699  65.6307359  36.9792128   8.3388182  65.4939728  37.7209678
  11.1124091  62.1389882  22.1066359  11.2070945  62.8779176  22.5605984
  10.4882934  61.7107357  22.5400923  11.0333121  62.1851203  22.2374506
   9.3676565  65.3176095  32.7556640   9.9415426  64.6803339  32.9105204
   9.2891368  65.3180177  31.8866297   9.4409800  65.2241206  32.6503051
  11.3647112  63.9838622  15.3403311  11.2827275  64.0540809  16.2058298
  12.0026833  64.5468366  15.1487051  11.4466950  64.0777593  15.4393260
   4.7240283  63.7499360  24.8077837   4.4659528  62.9171095  24.7809137
   4.7788766  63.9756973  23.9670337   4.6940061  63.6597131  24.6797974
   9.8041333  55.8527810  24.9081930   9.0997660  55.3636996  25.0665849
   9.8526308  55.8650285  24.0370374   9.7071385  55.7817458  24.8021270
   3.6974995  61.3037122  25.2942732   3.1224587  61.4629291  25.9306693
   3.3210672  60.6672531  24.8311182   3.5577808  61.2334935  25.3197290
   7.3648284  59.7760471  30.1535110   6.9762717  59.3514689  29.4987301
   6.7002982  60.0242621  30.6612137   7.2095212  59.7499193  30.1322978
  17.0071553  59.5335476  22.9282940  16.7508118  58.7215418  22.7380823
  17.8500867  59.5413043  22.7013128  17.0937579  59.4147474  22.8667757
  11.1874646  53.4735100  27.6659094  11.5685157  52.7913271  28.0526969
  10.3837930  53.1844702  27.4834759  11.1251107  53.3302149  27.6963150
   8.4687222  64.0059076  18.3511917   9.2827861  64.2973969  18.2394689
   8.4046364  63.3518938  17.7770210   8.5789961  63.9524271  18.2500755
  14.6896712  66.6885072  32.7641493  14.4535350  65.8573137  32.6453553
  15.3339941  66.6370679  33.3496337  14.7491383  66.5582760  32.8327386
   4.3395131  67.4780593  23.4784229   4.9769078  67.2392341  24.0236023
   4.7650202  67.6817752  22.7437390   4.4971297  67.4731604  23.4501387
   5.1466486  55.9789298  37.5321703   4.8319927  56.7488861  37.2691266
   4.8256419  55.4159554  36.9473930   5.0525405  56.0099567  37.4063053
  15.7133133  66.4729521  28.8269787  15.4078950  67.2057578  29.1883103
  14.9939349  66.0667450  28.5462573  15.5620475  66.5211254  28.8382924
   6.7216603  67.9553016  25.1578016   6.7955611  67.7928188  26.0119865
   7.5386109  68.1443206  24.9138497   6.8532961  67.9589758  25.2476041
  21.4134925  63.1122522  28.1538132  21.3459426  63.1318481  27.2840718
  21.3990588  63.9552849  28.3793802  21.4013682  63.2396256  28.0590608
   2.6998383  54.3679820  23.1467899   1.8320808  54.4402419  23.2125508
   2.9873587  55.1701899  23.3355874   2.6138131  54.4973967  23.1842666
  11.8231272  54.5157679  31.4779221  12.5684864  54.3267490  31.0642646
  11.4068576  55.0415917  30.9193077  11.8716246  54.5659825  31.3343794
  19.1993543  61.8866908  26.4284726  19.7501464  61.2534977  26.6681818
  19.1837658  62.4182301  27.1200230  19.2778739  61.8715856  26.5663584
   5.8515933  65.7205505  30.9744619   5.3527627  66.4321273  31.0529508
   6.6616158  66.0406172  30.9362782   5.8972040  65.8732354  30.9801188
   2.1144051  64.9828458  25.2207340   1.8257300  64.3565929  25.7553068
   2.9827399  64.9248746  25.2872021   2.2004303  64.8816002  25.3098295
  12.9021949  60.1263241  25.5389322  12.5586715  59.4053577  25.8896572
  13.0014991  59.9177093  24.6967680  12.8663992  59.9887445  25.4661002
  13.3634978  66.5888946  21.0813310  13.9293011  67.2482155  20.9971853
  12.7162881  66.9338644  21.5529712  13.3513734  66.7370887  21.1386067
   4.7782991  58.5786549  36.2706918   3.9682767  58.8844329  36.1596760
   5.2557678  59.2992132  36.3859502   4.7286470  58.7301151  36.2713989
   3.6374551  67.7932270  26.5189821   3.1155305  67.9332562  27.2041685
   4.0248571  67.0342935  26.7091938   3.6178252  67.7017794  26.6490897
   9.8341556  69.5327730  20.5050390   9.5928232  68.7995590  20.0977455
  10.0142889  70.0814587  19.8516723   9.8249180  69.5050121  20.3480612
   5.0640877  64.8236290  21.9171312   4.8683659  65.4311024  21.3231615
   5.2875222  64.1304234  21.4362986   5.0675518  64.8113815  21.7587393
   3.4619407  61.7091027  22.0352180   4.1842059  61.8732186  21.5755986
   2.9827399  62.4300692  21.9291520   3.4983137  61.8389257  21.9517794
  11.4212914  58.0454826  27.4148865  10.5824015  58.0716105  27.1787128
  11.4917282  58.6925562  27.9954212  11.3081308  58.1450952  27.4657982
   1.1127023  64.1149100  31.1406320   1.6248120  64.3933353  30.4915080
   0.8263366  64.8538394  31.5069133   1.1461886  64.2651454  31.0996198
   9.8682193  54.9440203  22.1476481  10.5708545  54.7447952  21.6696439
   9.6026381  54.1716146  22.4545325   9.9328825  54.8003169  22.1221923
  15.2970438  63.2522813  24.7010107  15.2104413  63.4078239  25.5544886
  14.8420918  63.8960889  24.3269512  15.2173695  63.3698568  24.7717214
   4.6310749  56.2075488  31.2007362   4.4393946  56.2230623  32.0506785
   5.4809345  56.4039163  31.1774016   4.7286471  56.2389840  31.3230656
   9.1696254  60.5733560  23.3235666   8.9230968  60.4929311  24.1572455
   9.4981377  59.7887028  23.1298194   9.1817498  60.4459825  23.4183189
  13.0644303  67.2816919  27.1122448  12.9258662  67.9797965  27.6171190
  12.2844301  67.1265576  26.7558629  12.9287530  67.3617086  27.1348722
  11.4022388  63.5813295  33.3644829  11.3970427  62.7093111  33.3687256
  12.1083382  63.7801464  32.8914285  11.5067392  63.4817169  33.2951865
   5.1293281  63.3090279  32.7358649   5.2736657  63.8891487  32.1001759
   5.4768930  63.6866575  33.4408504   5.2020743  63.4510983  32.7457644
   7.3013199  62.5080447  30.5183781   6.5536513  62.7011461  30.1132059
   7.4554724  61.6825667  30.2807902   7.2135626  62.4145558  30.4229187
  14.5597676  66.6395173  17.8738947  14.1804485  65.8532311  17.8668236
  13.8963921  67.1882030  17.7310591  14.4056151  66.6039997  17.8519744
   7.5414976  56.4030998  31.4079185   7.9987590  57.1354972  31.5351977
   7.6171305  55.9797463  32.1666441   7.6205946  56.4488236  31.5380261
  12.0142302  49.5820873  25.2773028  12.1325870  50.0397336  24.5440330
  11.8404477  48.7766134  24.9909245  12.0061473  49.5314645  25.1273961
   5.4197354  58.3933102  28.2521009   4.6293428  58.2124562  28.5738345
   5.8157977  57.6160054  28.2351303   5.3614230  58.2520563  28.2973557
  10.8041040  66.0275532  25.9780455  10.1286042  65.7960764  26.4793842
  10.8133416  65.4196715  25.3522560  10.7059545  65.9034457  25.9596607
   7.9335184  60.8693361  32.7344508   7.8694325  61.7303317  32.6064644
   8.0732372  60.5525354  31.9340059   7.9450654  60.9493527  32.5972721
  12.8057775  68.8840664  18.2090633  12.8877612  69.6907650  17.8852084
  13.2907517  68.9036623  18.9331406  12.8894932  69.0061327  18.2677531
   6.6154278  63.5625500  26.8760711   6.1916527  63.7629999  26.1399729
   6.4399133  62.7154348  26.9885010   6.5265158  63.4674282  26.7834401
   1.9036723  64.0577552  22.3088683   2.0601342  63.9924354  23.1644675
   2.2437316  64.8326104  22.0967363   1.9769958  64.1626750  22.4043277
   8.4415867  63.4335435  21.1782046   8.9831413  62.9305816  21.6420667
   8.7562426  63.3800630  20.3671532   8.5680265  63.3514856  21.1265858
  12.3132975  67.6438083  38.2908959  13.1267840  67.3723231  38.4514091
  12.1527941  67.3445623  37.4869154  12.4102923  67.5593009  38.1954364
   9.5905137  58.3271740  31.2304347   9.8047106  57.6882654  30.6767701
   8.9739036  58.7717564  30.8012209   9.5310466  58.2981883  31.0854778
  11.7544225  59.9360805  32.1687654  10.9420907  59.6286695  32.2500827
  12.2134159  59.4559805  32.7330366  11.7024610  59.8197297  32.2642248
  11.1649480  67.8140477  22.6164598  10.8064134  67.9855120  23.3928631
  10.6788190  68.2753682  22.0592597  11.0408176  67.9079448  22.6489867
   8.9819865  51.4371675  26.2191690   8.1113423  51.4110396  26.1724999
   9.2360207  51.2648868  25.4017535   8.8913426  51.4081819  26.0911826
   8.8497732  61.3420876  36.9516356   9.3197364  61.9662993  37.3384230
   8.8959613  60.6737852  37.5109571   8.9265608  61.3355557  37.0916428
   6.0069006  53.4477904  27.6765160   5.4907495  52.7558095  27.8016739
   5.4462935  54.1148681  27.6227759   5.8475519  53.4441161  27.6871226
   8.0761239  53.9870864  29.5058013   7.6892993  54.0119895  30.2871542
   7.5894177  53.4212542  29.0532529   7.9473748  53.9066615  29.5545916
  12.3254219  68.7044373  33.5631799  12.9633939  68.2104568  33.2294255
  11.6828310  68.6321773  32.9784026  12.3248445  68.6203381  33.4274154
  14.0511219  60.5533519  28.1297715  13.6238827  60.4659867  27.3745814
  13.4137272  60.6611294  28.7152559  13.8940826  60.5566179  28.1043156
   7.7418381  50.8737849  31.7968272   8.3711499  51.4098149  31.5189343
   7.9104244  50.7815208  32.6481838   7.8596176  50.9399212  31.8816801
   7.5432296  55.6609044  34.0694684   8.3705725  55.3894193  34.1253299
   7.5640142  56.4569886  34.4258502   7.6685146  55.7388798  34.1309867
  12.3808475  69.3964181  30.2037156  13.1700854  69.0453246  30.3239238
  12.5552073  70.2100570  29.9413790  12.5228757  69.4650038  30.1825024
   2.1201786  62.8072907  27.2564945   1.2789792  62.7076781  27.4643839
   2.3291794  63.5768387  27.6079265   2.0266478  62.9064950  27.3392260
  11.2342300  53.4073738  24.7653574  11.4391893  53.3396046  25.6110571
  10.9068724  54.2132559  24.6974752  11.2157548  53.5159678  24.8813229
   5.9318451  60.7354306  26.5062542   5.6281588  60.1810294  27.1072950
   5.2297872  60.9146516  26.0190576   5.7834661  60.6799088  26.5232248
   4.9884548  58.0454826  21.0707244   5.2644282  57.3273738  20.6584812
   5.5883217  58.6439746  20.8628350   5.1177812  58.0275197  20.9788005
  14.4875987  53.9605502  24.2456340  13.8750301  54.4475904  24.6310072
  14.5840162  53.2848993  24.7893991  14.4113885  53.9323811  24.3835198
   8.4895068  55.7168343  19.3453839   8.9438815  55.8878904  20.0701684
   8.9635114  55.1036454  18.9451615   8.6263388  55.6519228  19.3927601
   2.0110594  65.2016669  28.6756578   1.4198527  65.8426167  28.6459593
   2.7731617  65.6254286  28.6487877   2.0358854  65.3592508  28.6671725
   2.4071217  56.3618667  29.3424595   2.8672698  56.4357596  30.0799719
   2.4527323  57.1599921  28.9924417   2.4821772  56.4912814  29.3997352
   4.0554566  57.0285362  33.9096622   3.6640131  56.3818709  34.3452400
   4.2240429  57.6196797  34.5290878   4.0225477  57.0199630  34.0659328
  18.1301015  65.0322439  29.6733856  18.1884139  65.4809088  30.4193832
  17.4967483  65.4421252  29.2363936  18.0452310  65.1596173  29.7186404
  11.7700110  70.6525981  26.1088602  11.5719799  71.1416795  25.4144813
  11.1487821  70.8567222  26.6872735  11.6487674  70.7542519  26.0911825
   5.8308088  62.4210878  20.4498846   6.5750133  62.8085154  20.6881796
   5.9768785  61.5768303  20.6139334   5.9618673  62.3541350  20.5092816
   7.7487664  54.2161136  25.4830708   6.9023709  54.3883944  25.3572058
   7.7458796  53.4110480  25.8196536   7.6234814  54.1222165  25.5141835
   8.8185964  57.9936351  26.3492766   8.3445918  57.4678113  26.8598077
   9.1904100  57.4465824  25.7807627   8.8035853  57.8352347  26.3407913
  15.0822695  63.0538727  27.7599546  14.8420918  62.2145142  27.7641973
  15.5614702  63.1338893  28.4840320  15.1174878  62.9420126  27.8674349
  10.7469464  58.8872905  19.4118520  10.2192482  58.9701649  18.7224228
  11.2065172  59.6290777  19.4083164  10.7371314  59.0093568  19.3093215
  17.0827882  59.8340184  25.7128805  16.8437652  59.7936018  24.8749590
  17.2461783  60.6811336  25.8394526  17.0718185  59.9532269  25.6082287
  13.6873912  64.2190133  31.6433850  14.4108111  63.7662659  31.4644870
  13.4223874  64.4994799  30.8606178  13.7555185  64.1941102  31.5012566
   2.5560780  58.8150307  28.3786730   1.9313850  58.8268699  27.7712682
   2.2206375  59.2910482  29.0277970   2.4146272  58.8868824  28.3843298
  10.3006546  67.4576469  18.5428177  11.0240745  67.9234582  18.3992750
   9.8607137  67.5250079  17.7925774  10.3422239  67.5360306  18.4112958
   9.4692701  64.3174011  29.7928866   8.8549695  63.7732062  30.0877501
   9.9859986  63.8038248  29.3134682   9.4548364  64.1610420  29.7653094
   8.7088999  65.3878281  27.5273164   8.2816607  64.7628000  27.0938600
   8.7013943  65.1053203  28.3532171   8.6448140  65.2531062  27.5852992
   1.8251526  60.4243454  30.5961598   1.9845012  59.6686778  31.0013320
   1.6444419  60.9734394  31.2502336   1.8216885  60.3937268  30.7524304
   9.7671829  52.5904690  31.1512388   9.2712390  52.7868364  30.4603954
  10.5240891  52.9897358  30.9801189   9.8058653  52.6782424  31.0232524
   7.0374708  56.2647036  27.7415698   7.0617195  55.7307148  27.0528478
   7.2886182  55.7564345  28.4041289   7.0784627  56.1107940  27.7380343
   3.3176030  54.9917854  27.1221442   3.3574402  55.4927061  27.8356150
   2.4925695  55.0828248  26.8527366   3.2015556  55.0799670  27.1871981
   5.5005643  64.5578594  35.2241737   4.6501274  64.6950308  35.3599382
   5.6633771  63.8242372  35.6689439   5.3989507  64.4692695  35.3097336
   4.7390394  61.5078364  29.4195342   3.9082324  61.6752182  29.2130590
   4.6841911  61.1314315  30.2044227   4.6079809  61.4768095  29.5043870
   2.5474177  54.9987257  35.0551752   3.1726881  54.4549390  35.3281184
   2.0924657  54.5182174  34.4859543   2.5722438  54.8476738  35.0113346
   3.1126438  59.7833955  19.9485459   3.2529399  60.2806420  20.6514101
   3.6108971  59.0820250  20.0899673   3.2067519  59.7535934  20.0737038
  16.1209226  63.1816544  30.1464400  16.7127066  63.8213795  30.1782598
  16.5568220  62.4839581  30.4356467  16.2727657  63.1734894  30.1945233
   4.7205643  56.5815042  17.2523478   5.0421484  56.1018124  16.5982740
   4.9832587  57.3914688  17.0614290   4.8071668  56.6304940  17.1278970
   7.9502616  67.6033916  30.7722294   7.4427707  68.1569763  31.2162925
   7.6529262  67.6642206  29.9541069   7.8307501  67.6940227  30.7170751
  10.1164798  55.9687236  29.6146957  10.5419870  55.5159762  29.0030484
   9.5021791  55.4147307  29.8911745  10.0893443  55.8201212  29.5651982
   8.5559021  52.4402336  23.0237534   7.9127339  52.2899982  23.5922673
   8.2158428  52.1944681  22.2586639   8.4104098  52.3814458  22.9940549
  13.1458367  60.3961762  22.4467543  12.4749557  60.9391465  22.3180608
  13.8398118  60.8656618  22.2049238  13.1487235  60.5460034  22.3923070
  13.3086495  56.8517646  25.3557916  13.6614105  56.4247369  26.0303715
  12.4501296  56.7668490  25.4858992  13.2335939  56.7762387  25.4752926
   2.0070180  59.4825166  23.4140762   1.2882169  59.8989298  23.6813626
   2.3782542  60.0479405  22.8632401   1.9562112  59.6274447  23.3723569
  11.3069761  60.1153015  29.3042758  11.2867688  59.9336310  30.1577537
  11.3548961  60.9865033  29.2802342  11.3104402  60.2169553  29.4266053
   9.2516090  66.7040207  35.2291235   9.2111945  66.0589884  34.6436391
  10.0639409  66.6476824  35.5416647   9.3659244  66.5999174  35.1888184
   7.7816754  58.5223166  18.7514142   7.1881593  58.8440162  18.1998709
   7.8192032  57.6764261  18.5435248   7.6991143  58.4447494  18.6396913
  14.7410555  51.9736058  26.2842228  14.2341419  51.2665198  26.2163406
  15.5377989  51.6429247  26.4143305  14.7837794  51.8209209  26.2941223
  10.6574571  58.4802670  22.1815892  10.4288264  58.5035372  21.3394250
  10.9172647  57.6560137  22.3010903  10.6620759  58.3618750  22.0741090
   4.9393799  60.3337143  31.7840992   4.4272702  59.7258326  32.1426024
   4.7673295  61.0493736  32.2514968   4.8383436  60.3500443  31.9057216
   3.7119333  57.0179216  23.4770088   4.1876699  57.3796296  22.8420269
   3.2107933  57.6735684  23.7570231   3.7084692  57.1673405  23.4246829
  16.9430695  66.4900985  19.2683093  17.3264301  67.2392341  19.4981190
  16.1474808  66.7366804  19.0095082  16.8824477  66.6370678  19.2640666
   8.8162869  58.2561388  34.2243248   9.3734300  58.0275197  33.5921713
   8.4923934  59.0167053  33.9478460   8.8509280  58.3345225  34.0899745
   6.5345987  61.3429041  35.1895255   7.2857314  61.6580718  35.5034809
   6.7268563  61.1408212  34.3629177   6.6737401  61.3596423  35.1138651
   5.7545986  59.1620416  16.8443472   6.1344951  59.1800045  16.0594587
   5.0138582  59.6074405  16.7234319   5.7014824  59.2302191  16.7107040
  13.3831277  57.4702607  22.4319050  13.3825503  57.3151264  23.2903327
  13.1787457  58.3165595  22.3760436  13.3531055  57.5723228  22.5506990
  11.1072129  62.1500109  26.0855257  11.6025794  61.4323104  26.0459278
  10.2971905  61.8470907  25.9709744  11.0616022  61.9997756  26.0628983
  13.1723948  64.9003797  28.7732386  13.5979019  64.3778219  28.2202811
  12.8080868  65.4984634  28.2521009  13.1810550  64.9114024  28.6141396
   9.7602547  68.6138061  25.1033544  10.2313725  69.3278324  25.2723529
  10.0962726  68.0136811  25.6393413   9.8797662  68.6309525  25.2065919
  11.8479532  70.2239374  37.2825616  11.9576497  69.4347935  37.6382363
  12.1770428  70.1345311  36.4799954  11.9131938  70.0945227  37.2168006
   6.6772042  53.3865532  32.0591638   6.8099948  52.5896525  32.3872614
   7.0617195  53.9131935  32.6389914   6.7528371  53.3465448  32.1935141
  10.3976494  68.4055995  31.8661236   9.8497440  67.7813879  31.5981301
  10.8589522  68.5950267  31.1505316  10.3843703  68.3415045  31.7211667
   9.7504397  50.3095858  28.6572732   8.9450361  50.1993587  28.9740570
   9.6211133  50.4108313  27.8002597   9.6124530  50.3079528  28.5780772
  13.2070358  56.4741350  29.2512429  12.6233347  56.9750556  28.8389996
  13.5274652  55.9670906  28.6176752  13.1683533  56.4733185  29.0970936
   5.7465157  55.3881944  19.5271103   6.5680851  55.5580257  19.2852798
   5.2834808  55.5429205  18.8037401   5.7996319  55.4363677  19.3842748
   4.3360489  53.3824707  30.3069532   4.8804902  53.0415834  30.8973874
   4.3897425  54.2410168  30.4490817   4.4249608  53.4579966  30.4151405
   9.9634820  69.4107068  28.3970577  10.7833194  69.2670034  28.6586873
   9.6828898  70.0353267  28.9387015  10.0431563  69.4817420  28.5158517
  16.3623942  71.0026636  25.0856767  16.0327272  71.4537780  24.4160466
  15.6868944  70.9242800  25.6329774  16.2134378  71.0577771  25.0679991
  23.5700350  66.9912159  23.3306378  23.2553791  67.6815638  23.7626800
  23.0527291  66.9356941  22.6291879  23.4464820  67.0847048  23.2903327
  14.5679896  69.0638925  20.5679715  15.3225864  69.4317242  20.3296765
  14.3907431  69.4378479  21.3358895  14.6534374  69.1737113  20.6464604
  12.9236961  71.4709244  17.2657828  12.7412534  71.6881124  16.4398821
  13.7862574  71.5848256  17.3216442  13.0241550  71.5199142  17.1512315
  18.6036680  68.4735654  20.3006852  19.3322840  68.2951609  19.8545008
  18.6931573  69.3153734  20.5114030  18.7243342  68.5719533  20.2660370
  25.5422635  70.2776147  27.1970977  26.1848543  70.3474251  27.7832892
  25.7945655  69.6105370  26.6950519  25.6744767  70.1902495  27.2098256
  20.7773917  71.3713118  24.9081930  20.0730244  70.8822304  25.0665849
  20.8258891  71.3835593  24.0370374  20.6803969  71.3002766  24.8021270
  27.9804137  75.0520784  22.9282940  27.7240702  74.2400726  22.7380823
  28.8233451  75.0598351  22.7013128  28.0670162  74.9332782  22.8667757
  22.1607229  68.9920408  27.6659094  22.5417741  68.3098579  28.0526969
  21.3570513  68.7030010  27.4834759  22.0983691  68.8487457  27.6963150
  16.1199070  71.4974606  37.5321703  15.8052511  72.2674169  37.2691266
  15.7989002  70.9344862  36.9473930  16.0257989  71.5284875  37.4063053
  13.6730967  69.8865128  23.1467899  12.8053392  69.9587727  23.2125508
  13.9606171  70.6887207  23.3355874  13.5870715  70.0159275  23.1842666
  22.7963855  70.0342987  31.4779221  23.5417447  69.8452798  31.0642646
  22.3801160  70.5601225  30.9193077  22.8448830  70.0845133  31.3343794
  23.8754532  75.6448549  25.5389322  23.5319298  74.9238885  25.8896572
  23.9747575  75.4362401  24.6967680  23.8396575  75.5072753  25.4661002
  22.3945498  73.5640134  27.4148865  21.5556598  73.5901413  27.1787128
  22.4649865  74.2110870  27.9954212  22.2813891  73.6636260  27.4657982
  20.8414776  70.4625511  22.1476481  21.5441129  70.2633259  21.6696439
  20.5758965  69.6901454  22.4545325  20.9061408  70.3188477  22.1221923
  15.6043332  71.7260796  31.2007362  15.4126529  71.7415931  32.0506785
  16.4541928  71.9224471  31.1774016  15.7019054  71.7575148  31.3230656
  18.5147559  71.9216306  31.4079185  18.9720173  72.6540280  31.5351977
  18.5903888  71.4982771  32.1666441  18.5938529  71.9673544  31.5380261
  22.9874885  65.1006181  25.2773028  23.1058453  65.5582644  24.5440330
  22.8137061  64.2951442  24.9909245  22.9794056  65.0499953  25.1273961
  19.9552449  66.9556983  26.2191690  19.0846007  66.9295704  26.1724999
  20.2092790  66.7834175  25.4017535  19.8646009  66.9267127  26.0911826
  16.9801590  68.9663212  27.6765160  16.4640078  68.2743403  27.8016739
  16.4195518  69.6333989  27.6227759  16.8208103  68.9626469  27.6871226
  19.0493823  69.5056172  29.5058013  18.6625576  69.5305203  30.2871542
  18.5626760  68.9397850  29.0532529  18.9206332  69.4251923  29.5545916
  18.7150965  66.3923157  31.7968272  19.3444083  66.9283457  31.5189343
  18.8836827  66.3000516  32.6481838  18.8328759  66.4584520  31.8816801
  18.5164880  71.1794352  34.0694684  19.3438309  70.9079501  34.1253299
  18.5372726  71.9755194  34.4258502  18.6417730  71.2574106  34.1309867
  22.2074883  68.9259046  24.7653574  22.4124477  68.8581354  25.6110571
  21.8801307  69.7317867  24.6974752  22.1890131  69.0344986  24.8813229
  25.4608571  69.4790810  24.2456340  24.8482885  69.9661212  24.6310072
  25.5572746  68.8034301  24.7893991  25.3846469  69.4509119  24.3835198
  19.4627652  71.2353651  19.3453839  19.9171398  71.4064212  20.0701684
  19.9367698  70.6221762  18.9451615  19.5995972  71.1704536  19.3927601
  18.7220247  69.7346444  25.4830708  17.8756292  69.9069252  25.3572058
  18.7191380  68.9295788  25.8196536  18.5967397  69.6407473  25.5141835
  19.7918548  73.5121659  26.3492766  19.3178502  72.9863421  26.8598077
  20.1636684  72.9651132  25.7807627  19.7768437  73.3537655  26.3407913
  28.0560465  75.3525492  25.7128805  27.8170235  75.3121326  24.8749590
  28.2194367  76.1996644  25.8394526  28.0450769  75.4717577  25.6082287
  20.7404412  68.1089998  31.1512388  20.2444974  68.3053672  30.4603954
  21.4973474  68.5082666  30.9801189  20.7791237  68.1967732  31.0232524
  18.0107292  71.7832344  27.7415698  18.0349779  71.2492456  27.0528478
  18.2618765  71.2749653  28.4041289  18.0517211  71.6293248  27.7380343
  14.2908614  70.5103162  27.1221442  14.3306986  71.0112369  27.8356150
  13.4658279  70.6013556  26.8527366  14.1748140  70.5984978  27.1871981
  13.5206761  70.5172565  35.0551752  14.1459464  69.9734698  35.3281184
  13.0657241  70.0367482  34.4859543  13.5455021  70.3662046  35.0113346
  21.0897382  71.4872544  29.6146957  21.5152453  71.0345070  29.0030484
  20.4754375  70.9332614  29.8911745  21.0626027  71.3386520  29.5651982
  19.5291604  67.9587644  23.0237534  18.8859922  67.8085290  23.5922673
  19.1891011  67.7129989  22.2586639  19.3836682  67.8999766  22.9940549
  24.2819078  72.3702954  25.3557916  24.6346688  71.9432677  26.0303715
  23.4233880  72.2853798  25.4858992  24.2068523  72.2947695  25.4752926
  25.7143138  67.4921366  26.2842228  25.2074003  66.7850505  26.2163406
  26.5110572  67.1614555  26.4143305  25.7570378  67.3394517  26.2941223
  21.6307154  73.9987978  22.1815892  21.4020847  74.0220680  21.3394250
  21.8905230  73.1745445  22.3010903  21.6353342  73.8804058  22.0741090
  24.3563860  72.9887915  22.4319050  24.3558087  72.8336572  23.2903327
  24.1520041  73.8350902  22.3760436  24.3263638  73.0908536  22.5506990
  17.6504626  68.9050840  32.0591638  17.7832531  68.1081833  32.3872614
  18.0349779  69.4317243  32.6389914  17.7260955  68.8650756  32.1935141
  20.7236981  65.8281166  28.6572732  19.9182945  65.7178895  28.9740570
  20.5943716  65.9293621  27.8002597  20.5857114  65.8264836  28.5780772
  24.1802941  71.9926658  29.2512429  23.5965930  72.4935864  28.8389996
  24.5007236  71.4856214  28.6176752  24.1416117  71.9918493  29.0970936
  16.7197741  70.9067252  19.5271103  17.5413435  71.0765565  19.2852798
  16.2567392  71.0614513  18.8037401  16.7728903  70.9548985  19.3842748
  15.3093073  68.9010015  30.3069532  15.8537486  68.5601141  30.8973874
  15.3630008  69.7595476  30.4490817  15.3982192  68.9765274  30.4151405
   0.6927528  28.3241612  22.6566887   1.3994296  27.8293642  22.7853822
   0.8815464  28.7650693  21.9269545   0.8255434  28.3159962  22.5675933
   3.4114953  28.1077895  19.6981540   3.1753590  27.2765960  19.5793600
   4.0558182  28.0563503  20.2836384   3.4709624  27.9775583  19.7667433
   4.4351373  27.8922344  15.7609834   4.1297191  28.6250401  16.1223150
   3.7157589  27.4860274  15.4802620   4.2838716  27.9404077  15.7722971
  10.1353166  24.5315345  15.0878178  10.0677666  24.5511304  14.2180765
  10.1208828  25.3745672  15.3133849  10.1231922  24.6589080  14.9930655
   1.0351215  29.0630906  25.2249005   1.8486081  28.7916055  25.3854138
   0.8746182  28.7638446  24.4209201   1.1321164  28.9785832  25.1294411
   1.1026716  30.8157004  17.1377203   1.8919094  30.4646069  17.2579284
   1.2770314  31.6293393  16.8753837   1.2446997  30.8842861  17.1165071
   6.8519256  26.4515262  16.6073903   6.9102379  26.9001911  17.3533879
   6.2185723  26.8614075  16.1703983   6.7670551  26.5788997  16.6526451
   2.4092152  25.6382956  18.5773897   3.1326351  25.1855483  18.3984917
   2.1442115  25.9187622  17.7946225   2.4773426  25.6133925  18.4352613
   4.8427466  24.6009367  17.0804447   5.4345307  25.2406618  17.1122645
   5.2786461  23.9032404  17.3696514   4.9945897  24.5927717  17.1285280
   1.8942188  26.3196620  15.7072433   2.3197260  25.7971042  15.1542858
   1.5299108  26.9177457  15.1861056   1.9028791  26.3306847  15.5481443
   0.5697772  31.6432198  24.2165662   0.6794738  30.8540758  24.5722410
   0.8988669  31.5538134  23.4140001   0.6350178  31.5138051  24.1508053
  15.1566711  38.4864743   8.2953501  15.1260715  39.3409380   8.4671770
  15.7548059  38.1860035   8.8539644  15.2403868  38.5681239   8.4028303
   8.3566395  37.5740394  13.0506431   7.5004291  37.7348892  13.1015548
   8.4034049  36.7032458  13.0711492   8.2365507  37.4691196  13.0612497
  11.6660112  43.8426919  22.6566887  12.3726879  43.3478950  22.7853822
  11.8548047  44.2836001  21.9269545  11.7988018  43.8345270  22.5675933
   7.7336786  49.4842750  10.1840321   8.1176166  50.0529649   9.6445096
   7.6695928  48.7592260   9.7046137   7.7810214  49.4618213  10.0334184
  11.2018216  39.6332438  15.6938083  11.7474177  40.3117524  15.7532052
  11.1435093  39.4919899  14.8339664  11.2734131  39.7124439  15.5750143
   4.3192291  47.1221504  11.0806435   4.4202654  46.3121858  11.3903563
   3.7234037  47.0278450  10.4506114   4.2464830  46.9886532  11.0332674
  12.9783285  41.0617045   6.5671810  12.8622811  41.8124731   6.9963949
  13.7739172  40.8040998   6.8167897  13.0787875  41.1351892   6.6675902
   4.1593031  52.0399093  12.4821291   4.8030486  52.4812257  12.8717450
   4.4849286  51.2352519  12.3951550   4.3024860  51.9864288  12.5266768
   6.9115319  37.0527063   7.9375540   7.6095483  37.2315190   8.4297003
   7.2267651  36.5297402   7.3145929   7.0610656  37.0020835   7.9177550
   7.1003254  43.4397508   7.9255331   7.5396890  42.8314608   8.3710104
   6.9507917  43.0604881   7.1540796   7.1424720  43.2935979   7.8774498
   4.5674897  42.0341520  15.1274157   5.2123900  41.5413963  14.8085105
   4.8076674  42.1766306  15.9540235   4.6985482  41.9818962  15.2023690
   7.1060988  44.8796426  14.7781049   7.3884231  44.0847831  14.5567805
   7.8347149  45.3577013  14.7986110   7.2550552  44.8331022  14.7484064
   5.0842182  32.4219460  12.0196814   4.7545512  32.8730603  11.3500513
   4.4087184  32.3435623  12.5669821   4.9352619  32.4770595  12.0020037
  10.7012591  41.7924689   4.8786100  10.6163886  42.6485656   5.0235669
  11.1896974  41.5169013   5.5468259  10.7601488  41.8782011   4.9988182
  11.6331024  38.4109483   6.3783835  11.1042495  38.6269117   7.0381142
  12.1556044  39.1045622   6.2984805  11.6319477  38.5452620   6.4639435
  17.0879077  43.9855788  11.7516880  16.2576780  44.1966431  11.9150296
  17.0388329  43.1592842  11.4759163  16.9585812  43.8945394  11.7354245
   5.1488814  46.8159642  14.5864789   4.6315756  46.4567057  13.9826097
   5.8463206  46.2921816  14.5970855   5.1754395  46.6857330  14.4995048
   8.8052406  47.2654456  20.5480962   8.8935752  47.0780596  21.3959173
   9.2342119  46.6191886  20.1485809   8.8814509  47.1417464  20.6152714
   6.3722866  46.5485616  19.5298625   5.8093701  46.1358226  20.0538286
   7.1343890  46.4738522  19.9491768   6.4017315  46.4763016  19.6691625
   1.9318858  48.5383637  12.1335255   2.6339437  48.0235626  12.1908011
   1.8516341  48.8657788  12.9382130   2.0242618  48.5097863  12.2608047
  16.5833035  36.6326188  15.5467301  15.7461456  36.7028375  15.7814896
  16.5521266  36.6350683  14.6741604  16.4551317  36.6436415  15.4526849
   2.9797764  38.7759224  21.2615670   3.1518268  38.6665119  22.1100951
   3.5167122  39.4213630  21.0246862   3.0842768  38.8551226  21.3520767
   1.2569633  44.7289989  11.6420863   2.0958532  44.9612922  11.6894624
   1.2881402  43.8594301  11.5727898   1.3851351  44.6346936  11.6385507
   1.8822336  45.1490864  15.9434168   2.4220561  45.0061995  16.6137541
   1.1992282  45.5487615  16.3118195   1.8614490  45.1870535  16.0968590
  11.3063221  40.8281865  11.1379193  12.0620736  41.2613379  11.1768101
  11.4125545  40.1786635  11.7113829  11.4333391  40.7959349  11.2277218
  14.3443392  44.6555142  11.8881596  13.9078624  44.6591885  12.6440567
  14.0106307  45.3360641  11.4561173  14.2306012  44.7567598  11.9362428
   8.9172466  46.6963475  23.2124746   9.7012882  46.8094323  23.5780488
   8.7169060  45.8704612  23.4083432   9.0038491  46.5910194  23.2959132
  14.2640875  31.6968970  14.1311024  14.9066783  31.7667075  14.7172939
  14.5163896  31.0298193  13.6290565  14.3963007  31.6095319  14.1438303
   2.0358087  34.9069533  18.7435598   1.3429884  34.4366513  18.9896329
   2.6518415  34.6807838  19.3177305   2.0242617  34.8036665  18.8644750
   9.0742859  48.6073577  16.8591202   8.2758105  48.3673077  17.1165070
   9.5228870  48.6587970  17.6058249   9.0217470  48.5795968  17.0076126
  17.4787738  41.3736062  10.7801233  18.1404172  40.8126731  10.6797141
  16.8379150  40.8788093  11.1053924  17.4816606  41.2172471  10.8133573
  13.7652569  42.3901444  10.5213222  14.0008158  42.5346643   9.6940072
  13.9142133  43.1543853  10.9144735  13.8218372  42.5240499  10.4576826
   0.7598646  38.8734937  19.8862443   1.4838619  38.8587968  20.3727337
   0.8614783  39.5830293  19.3884411   0.8816855  38.9759641  19.8841230
  15.5943026  41.2303110   8.3582825  15.9251243  41.7630751   7.7522920
  16.1676114  41.2841998   9.0144776  15.7276705  41.3172679   8.3660607
   8.1343596  42.3534022  24.7511390   7.3416577  42.6677534  24.9364009
   8.2492523  42.5685490  23.9132174   8.0339006  42.4317859  24.6549725
  10.8074915  39.0768013   9.0406406  10.9021769  39.8157307   9.4946031
  10.1833758  38.6485489   9.4740970  10.7283945  39.1229334   9.1714553
   9.0627389  42.2554226  19.6896686   9.6366250  41.6181470  19.8445250
   8.9842192  42.2558308  18.8206344   9.1360623  42.1619337  19.5843097
   4.4191107  40.6877491  11.7417884   4.1610352  39.8549226  11.7149183
   4.4739590  40.9135104  10.9010384   4.3890885  40.5975262  11.6138021
   9.4992157  32.7905942  11.8421977   8.7948484  32.3015127  12.0005896
   9.5477132  32.8028416  10.9710421   9.4022209  32.7195590  11.7361316
   3.3925819  38.2415253  12.2282779   2.8175411  38.4007422  12.8646740
   3.0161496  37.6050662  11.7651229   3.2528632  38.1713066  12.2537337
   7.0599108  36.7138603  17.0875157   6.6713541  36.2892820  16.4327348
   6.3953806  36.9620752  17.5952184   6.9046036  36.6877324  17.0663025
  16.7022377  36.4713607   9.8622987  16.4458942  35.6593549   9.6720870
  17.5451691  36.4791174   9.6353174  16.7888403  36.3525605   9.8007804
  10.8825470  30.4113231  14.5999141  11.2635981  29.7291402  14.9867015
  10.0788754  30.1222833  14.4174806  10.8201931  30.2680280  14.6303197
   8.1638046  40.9437207   5.2851964   8.9778685  41.2352100   5.1734735
   8.0997188  40.2897070   4.7110257   8.2740785  40.8902402   5.1840801
  14.3847536  43.6263203  19.6981540  14.1486174  42.7951268  19.5793600
  15.0290765  43.5748811  20.2836384  14.4442207  43.4960891  19.7667433
   4.0345955  44.4158725  10.4124276   4.6719901  44.1770472  10.9576069
   4.4601026  44.6195884   9.6777437   4.1922121  44.4109735  10.3841433
   4.8417310  32.9167430  24.4661750   4.5270751  33.6866992  24.2031312
   4.5207243  32.3537686  23.8813977   4.7476229  32.9477698  24.3403100
  15.4083957  43.4107652  15.7609834  15.1029774  44.1435709  16.1223150
  14.6890173  43.0045582  15.4802620  15.2571299  43.4589385  15.7722971
   6.4167426  44.8931147  12.0918062   6.4906435  44.7306319  12.9459912
   7.2336933  45.0821337  11.8478544   6.5483785  44.8967890  12.1816088
  21.1085749  40.0500653  15.0878178  21.0410249  40.0696612  14.2180765
  21.0941412  40.8930980  15.3133849  21.0964506  40.1774387  14.9930655
  11.5182096  31.4535810  18.4119268  12.2635688  31.2645621  17.9982693
  11.1019400  31.9794048  17.8533124  11.5667070  31.5037956  18.2683841
  18.8944367  38.8245039  13.3624773  19.4452288  38.1913108  13.6021865
  18.8788482  39.3560432  14.0540277  18.9729563  38.8093987  13.5003631
   5.5466757  42.6583636  17.9084666   5.0478451  43.3699404  17.9869555
   6.3566982  42.9784303  17.8702829   5.5922864  42.8110485  17.9141235
   1.8094875  41.9206589  12.1547387   1.5208124  41.2944061  12.6893114
   2.6778223  41.8626877  12.2212068   1.8955127  41.8194134  12.2438342
  12.5972773  37.0641373  12.4729369  12.2537539  36.3431708  12.8236619
  12.6965815  36.8555224  11.6307727  12.5614816  36.9265576  12.4001049
  13.0585802  43.5267077   8.0153357  13.6243834  44.1860287   7.9311900
  12.4113705  43.8716775   8.4869759  13.0464558  43.6749018   8.0726114
   4.4733815  35.5164681  23.2046965   3.6633591  35.8222460  23.0936807
   4.9508502  36.2370263  23.3199549   4.4237294  35.6679282  23.2054036
   3.3325375  44.7310402  13.4529868   2.8106128  44.8710693  14.1381732
   3.7199395  43.9721066  13.6431985   3.3129076  44.6395925  13.5830944
   9.5292380  46.4705861   7.4390436   9.2879056  45.7373722   7.0317501
   9.7093713  47.0192718   6.7856770   9.5200004  46.4428252   7.2820659
   4.7591701  41.7614421   8.8511359   4.5634483  42.3689155   8.2571662
   4.9826046  41.0682365   8.3703033   4.7626342  41.7491946   8.6927439
   3.1570231  38.6469159   8.9692227   3.8792883  38.8110317   8.5096033
   2.6778223  39.3678823   8.8631567   3.1933961  38.7767388   8.8857841
  11.1163738  34.9832957  14.3488912  10.2774839  35.0094236  14.1127175
  11.1868105  35.6303693  14.9294259  11.0032132  35.0829083  14.3998029
   9.5633016  31.8818334   9.0816528  10.2659369  31.6826083   8.6036486
   9.2977205  31.1094277   9.3885371   9.6279649  31.7381300   9.0561969
  14.9921262  40.1900944  11.6350154  14.9055237  40.3456370  12.4884933
  14.5371742  40.8339020  11.2609559  14.9124519  40.3076699  11.7057260
   4.3261573  33.1453620  18.1347408   4.1344770  33.1608754  18.9846832
   5.1760169  33.3417294  18.1114063   4.4237295  33.1767971  18.2570703
   8.8647078  37.5111691  10.2575713   8.6181792  37.4307442  11.0912502
   9.1932201  36.7265159  10.0638241   8.8768322  37.3837957  10.3523236
  12.7595127  44.2195051  14.0462494  12.6209486  44.9176096  14.5511237
  11.9795125  44.0643707  13.6898676  12.6238354  44.2995217  14.0688769
  11.0973212  40.5191426  20.2984876  11.0921251  39.6471243  20.3027303
  11.8034206  40.7179595  19.8254332  11.2018216  40.4195300  20.2291912
   4.8244105  40.2468410  19.6698696   4.9687481  40.8269618  19.0341806
   5.1719754  40.6244707  20.3748551   4.8971567  40.3889114  19.6797691
   6.9964023  39.4458578  17.4523828   6.2487337  39.6389593  17.0472106
   7.1505548  38.6203798  17.2147949   6.9086450  39.3523690  17.3569234
   3.8971860  48.4371182  16.5359723   4.0461424  47.8774098  15.8833128
   4.6771862  48.5163183  16.9192242   4.0345954  48.3656747  16.4956672
  14.2548500  43.5773304   4.8078994  13.8755308  42.7910442   4.8008283
  13.5914745  44.1260161   4.6650638  14.1006975  43.5418128   4.7859791
   6.4225161  48.6085825  17.8144214   6.3468832  47.9394635  18.3695002
   6.3515020  49.3103613  18.3284880   6.4005768  48.6130732  17.9721062
   7.2365800  33.3409129  18.3419232   7.6938414  34.0733103  18.4692024
   7.3122129  32.9175594  19.1006487   7.3156770  33.3866367  18.4720308
  11.7093126  26.5199004  12.2113075  11.8276694  26.9775467  11.4780377
  11.5355301  25.7144265  11.9249292  11.7012297  26.4692776  12.0614008
   7.0795408  47.1286823   8.6467820   7.8445299  46.8596467   8.3250484
   6.9773498  46.6436834   9.3637883   7.1776903  47.0176388   8.7047647
   5.1148178  35.3311233  15.1861056   4.3244252  35.1502693  15.5078391
   5.5108800  34.5538185  15.1691350   5.0565054  35.1898694  15.2313604
  10.4991864  42.9653663  12.9120502   9.8236866  42.7338895  13.4133889
  10.5084240  42.3574846  12.2862607  10.4010368  42.8412588  12.8936654
   7.6286008  37.8071492  19.6684555   7.5645149  38.6681448  19.5404691
   7.7683196  37.4903485  18.8680106   7.6401478  37.8871659  19.5312767
  12.5008599  45.8218795   5.1430679  12.5828436  46.6285782   4.8192130
  12.9858341  45.8414755   5.8671453  12.5845756  45.9439458   5.2017578
   6.3105102  40.5003631  13.8100757   5.8867351  40.7008130  13.0739776
   6.1349957  39.6532479  13.9225057   6.2215982  40.4052413  13.7174448
   5.8116795  52.0154144  16.2722215   6.3012726  51.3164934  16.0897879
   5.2401028  51.7178014  16.8598272   5.8001325  51.8680368  16.3323256
   1.5987547  40.9955683   9.2428730   1.7552166  40.9302486  10.0984722
   1.9388140  41.7704235   9.0307410   1.6720782  41.1004881   9.3383324
   8.1366691  40.3713566   8.1122093   8.6782237  39.8683947   8.5760714
   8.4513250  40.3178761   7.3011578   8.2631088  40.2892987   8.0605905
  12.0083799  44.5816214  25.2249005  12.8218664  44.3101363  25.3854138
  11.8478765  44.2823754  24.4209201  12.1053747  44.4971140  25.1294411
   9.2855961  35.2649871  18.1644394   9.4997930  34.6260785  17.6107748
   8.6689860  35.7095695  17.7352255   9.2261290  35.2360015  18.0194825
  10.6960629  48.1868619   9.6098615  10.3040420  47.8835334   8.8921481
  10.8513701  49.0237709   9.4203568  10.6614219  48.2652456   9.4755112
  11.4495049  36.8738936  19.1027701  10.6371731  36.5664826  19.1840873
  11.9084983  36.3937936  19.6670413  11.3975434  36.7575428  19.1982295
  10.8600303  44.7518608   9.5504645  10.5014958  44.9233251  10.3268677
  10.3739014  45.2131814   8.9932644  10.7359000  44.8457579   9.5829914
   8.6770689  28.3749807  13.1531736   7.8064247  28.3488528  13.1065046
   8.9311031  28.2026999  12.3357582   8.5864250  28.3459950  13.0251873
   8.5448556  38.2799008  23.8856403   9.0148187  38.9041124  24.2724277
   8.5910436  37.6115983  24.4449618   8.6216432  38.2733688  24.0256474
   5.7019830  30.3856035  14.6105207   5.1858319  29.6936226  14.7356786
   5.1413759  31.0526812  14.5567806   5.5426343  30.3819293  14.6211273
   7.7712063  30.9248995  16.4398059   7.3843817  30.9498027  17.2211589
   7.2845001  30.3590674  15.9872576   7.6424572  30.8444746  16.4885963
  12.0205043  45.6422504  20.4971846  12.6584763  45.1482700  20.1634302
  11.3779134  45.5699904  19.9124073  12.0199269  45.5581512  20.3614201
  13.7462043  37.4911650  15.0637762  13.3189651  37.4037999  14.3085861
  13.1088096  37.5989425  15.6492606  13.5891650  37.4944310  15.0383203
   7.4369205  27.8115981  18.7308319   8.0662323  28.3476281  18.4529390
   7.6055068  27.7193339  19.5821885   7.5547000  27.8777343  18.8156847
   7.2383120  32.5987175  21.0034731   8.0656549  32.3272324  21.0593345
   7.2590966  33.3948017  21.3598549   7.3635970  32.6766929  21.0649914
  12.0759299  46.3342312  17.1377203  12.8651678  45.9831377  17.2579284
  12.2502897  47.1478701  16.8753837  12.2179581  46.4028169  17.1165071
   1.8152610  39.7451038  14.1904992   0.9740616  39.6454912  14.3983885
   2.0242618  40.5146518  14.5419312   1.7217302  39.8443081  14.2732306
  10.9293124  30.3451869  11.6993621  11.1342717  30.2774177  12.5450618
  10.6019548  31.1510690  11.6314799  10.9108371  30.4537809  11.8153276
   5.6269275  37.6732437  13.4402589   5.3232412  37.1188425  14.0412997
   4.9248695  37.8524647  12.9530623   5.4785484  37.6177220  13.4572295
   3.6887626  44.8882158  18.1474687   3.5807981  44.8984220  19.0136745
   3.8983407  45.7136938  17.9579641   3.7037737  45.0123233  18.2478778
  14.1826811  30.8983633  11.1796387  13.5701125  31.3854035  11.5650118
  14.2790986  30.2227124  11.7234038  14.1064709  30.8701942  11.3175245
   1.7061418  42.1394800  15.6096624   1.1149351  42.7804298  15.5799640
   2.4682441  42.5632418  15.5827924   1.7309678  42.2970639  15.6011772
   2.1022040  33.2996798  16.2764642   2.5623522  33.3735727  17.0139766
   2.1478147  34.0978052  15.9264463   2.1772596  33.4290945  16.3337399
   3.7505390  33.9663493  20.8436669   3.3590955  33.3196840  21.2792447
   3.9191253  34.5574928  21.4630925   3.7176301  33.9577761  20.9999375
  17.8251839  41.9700570  16.6073903  17.8834963  42.4187219  17.3533879
  17.1918307  42.3799383  16.1703983  17.7403134  42.0974305  16.6526451
  11.4650934  47.5904112  13.0428649  11.2670623  48.0794926  12.3484860
  10.8438645  47.7945353  13.6212782  11.3438498  47.6920650  13.0251872
   5.5258912  39.3589009   7.3838893   6.2700957  39.7463285   7.6221843
   5.6719608  38.5146434   7.5479381   5.6569497  39.2919482   7.4432863
   7.4438488  31.1539268  12.4170755   6.5974533  31.3262075  12.2912104
   7.4409620  30.3488611  12.7536583   7.3185638  31.0600297  12.4481882
   8.5136788  34.9314482  13.2832812   8.0396742  34.4056244  13.7938123
   8.8854924  34.3843955  12.7147674   8.4986677  34.7730479  13.2747960
  14.7773519  39.9916858  14.6939593  14.5371742  39.1523273  14.6982019
  15.2565526  40.0717024  15.4180367  14.8125702  39.8798257  14.8014395
  16.7778706  36.7718315  12.6468852  16.5388476  36.7314149  11.8089637
  16.9412607  37.6189467  12.7734573  16.7669009  36.8910400  12.5422334
  13.3824736  41.1568264  18.5773897  14.1058935  40.7040791  18.3984917
  13.1174698  41.4372930  17.7946225  13.4506009  41.1319233  18.4352613
   2.2511604  35.7528438  15.3126776   1.6264674  35.7646830  14.7052729
   1.9157199  36.2288613  15.9618017   2.1097096  35.8246955  15.3183345
   9.9957370  44.3954600   5.4768223  10.7191569  44.8612713   5.3332797
   9.5557961  44.4628210   4.7265820  10.0373063  44.4738437   5.3453005
   9.1643525  41.2552142  16.7268912   8.5500518  40.7110193  17.0217548
   9.6810810  40.7416379  16.2474728   9.1499188  41.0988551  16.6993141
   8.4039823  42.3256412  14.4613211   7.9767431  41.7006131  14.0278646
   8.3964767  42.0431334  15.2872218   8.3398964  42.1909193  14.5193039
   1.5202350  37.3621586  17.5301645   1.6795836  36.6064910  17.9353367
   1.3395243  37.9112525  18.1842383   1.5167709  37.3315399  17.6864351
   9.4622653  29.5282821  18.0852434   8.9663214  29.7246495  17.3944001
  10.2191715  29.9275489  17.9141236   9.5009477  29.6160555  17.9572571
   6.7325532  33.2025167  14.6755745   6.7568019  32.6685279  13.9868525
   6.9837006  32.6942476  15.3381336   6.7735451  33.0486071  14.6720390
   3.0126854  31.9295985  14.0561489   3.0525226  32.4305192  14.7696197
   2.1876519  32.0206379  13.7867412   2.8966380  32.0177802  14.1212028
   5.1956467  41.4956725  22.1581784   4.3452098  41.6328439  22.2939429
   5.3584595  40.7620503  22.6029486   5.0940331  41.4070826  22.2437383
   4.4341218  38.4456495  16.3535388   3.6033147  38.6130313  16.1470636
   4.3792735  38.0692446  17.1384274   4.3030633  38.4146226  16.4383916
   2.2425001  31.9365388  21.9891799   2.8677704  31.3927521  22.2621231
   1.7875481  31.4560306  21.4199589   2.2673262  31.7854869  21.9453393
  15.8160050  40.1194675  17.0804447  16.4077890  40.7591926  17.1122645
  16.2519044  39.4217712  17.3696514  15.9678481  40.1113025  17.1285280
   7.6453440  44.5412047  17.7062341   7.1378531  45.0947894  18.1502971
   7.3480086  44.6020337  16.8881115   7.5258325  44.6318359  17.6510798
   9.8115622  32.9065367  16.5487004  10.2370693  32.4537893  15.9370530
   9.1972615  32.3525438  16.8251791   9.7844267  32.7579343  16.4992029
  12.8409191  37.3339894   9.3807589  12.1700381  37.8769596   9.2520655
  13.5348941  37.8034749   9.1389284  12.8438059  37.4838165   9.3263117
   6.8895925  49.4736606  14.6119348   6.6661579  48.7155435  14.9803374
   6.4005768  49.5034627  13.8899788   6.7839374  49.3658830  14.5596089
  13.0037319  33.7895777  12.2897963  13.3564929  33.3625500  12.9643761
  12.1452120  33.7046621  12.4199039  12.9286763  33.7140518  12.4092973
   1.7021004  36.4203297  10.3480809   0.9832993  36.8367430  10.6153673
   2.0733366  36.9857536   9.7972447   1.6512935  36.5652578  10.3063616
  11.0020584  37.0531146  16.2382805  10.9818512  36.8714441  17.0917584
  11.0499785  37.9243164  16.2142389  11.0055225  37.1547684  16.3606100
   8.9466914  43.6418338  22.1631282   8.9062769  42.9968015  21.5776437
   9.7590233  43.5854955  22.4756694   9.0610068  43.5377305  22.1228231
   5.5374382  49.6937064  12.0656432   5.1234781  49.0311194  11.6760274
   6.2221756  49.8414923  11.5452127   5.5772754  49.6177722  11.9312930
   8.9039676  48.8527149  12.8180049   8.5055959  48.9629419  12.0500869
   8.2890896  49.0609215  13.4006609   8.7538565  48.9000717  12.7911348
  14.4361379  28.9114189  13.2182275  13.9292243  28.2043329  13.1503453
  15.2328812  28.5807378  13.3483352  14.4788618  28.7587340  13.2281270
  10.3525395  35.4180801   9.1155939  10.1239088  35.4413503   8.2734297
  10.6123471  34.5938268   9.2350949  10.3571583  35.2996881   9.0081137
   4.6344623  37.2715274  18.7181039   4.1223526  36.6636457  19.0766071
   4.4624119  37.9871867  19.1855015   4.5334260  37.2878574  18.8397263
   3.4070157  33.9557348  10.4110135   3.8827523  34.3174427   9.7760316
   2.9058757  34.6113815  10.6910277   3.4035516  34.1051536  10.3586876
  16.6381519  43.4279116   6.2023140  17.0215124  44.1770472   6.4321237
  15.8425632  43.6744935   5.9435129  16.5775301  43.5748810   6.1980713
   8.5113693  35.1939519  21.1583295   9.0685124  34.9653329  20.5261760
   8.1874758  35.9545185  20.8818507   8.5460104  35.2723356  21.0239792
   6.2296811  38.2807172  22.1235302   6.9808138  38.5958849  22.4374856
   6.4219387  38.0786343  21.2969224   6.3688225  38.2974554  22.0478698
  13.0782101  34.4080739   9.3659097  13.0776327  34.2529395  10.2243374
  12.8738281  35.2543726   9.3100483  13.0481879  34.5101359   9.4847037
  10.8022953  39.0878240  13.0195304  11.2976618  38.3701235  12.9799324
   9.9922729  38.7849038  12.9049791  10.7566846  38.9375887  12.9969030
  12.8674772  41.8381928  15.7072433  13.2929843  41.3156350  15.1542858
  12.5031692  42.4362765  15.1861056  12.8761374  41.8492155  15.5481443
   2.5028852  50.1346145  14.4669778   2.8175410  50.9482534  14.4747560
   2.9122265  49.7496364  15.1351938   2.6096950  50.1974848  14.5673870
   9.4553371  45.5516192  12.0373590   9.9264549  46.2656455  12.2063576
   9.7913550  44.9514942  12.5733460   9.5748486  45.5687656  12.1405966
  11.5430356  47.1617506  24.2165662  11.6527321  46.3726066  24.5722410
  11.8721252  47.0723442  23.4140001  11.6082762  47.0323359  24.1508053
   6.3722866  30.3243663  18.9931685   6.5050772  29.5274656  19.3212661
   6.7568019  30.8510066  19.5729961   6.4479195  30.2843579  19.1275188
  10.0927318  45.3434126  18.8001283   9.5448263  44.7192010  18.5321348
  10.5540346  45.5328398  18.0845362  10.0794527  45.2793177  18.6551714
   9.4455221  27.2473989  15.5912778   8.6401185  27.1371719  15.9080617
   9.3161957  27.3486445  14.7342644   9.3075354  27.2457659  15.5120819
   4.0311313  30.3202838  17.2409579   4.5755726  29.9793965  17.8313921
   4.0848249  31.1788299  17.3830864   4.1200432  30.3958097  17.3491452
   9.6585644  46.3485199  15.3310624  10.4784018  46.2048165  15.5926919
   9.3779721  46.9731398  15.8727062   9.7382387  46.4195551  15.4498564
  26.1299294  54.0050051   8.2953501  26.0993299  54.8594687   8.4671770
  26.7280643  53.7045343   8.8539644  26.2136452  54.0866547   8.4028303
  19.3298979  53.0925702  13.0506431  18.4736875  53.2534200  13.1015548
  19.3766633  52.2217766  13.0711492  19.2098090  52.9876504  13.0612497
  22.6392696  59.3612227  22.6566887  23.3459463  58.8664258  22.7853822
  22.8280631  59.8021309  21.9269545  22.7720601  59.3530578  22.5675933
  18.7069370  65.0028058  10.1840321  19.0908749  65.5714956   9.6445096
  18.6428511  64.2777568   9.7046137  18.7542797  64.9803521  10.0334184
  22.1750800  55.1517746  15.6938083  22.7206760  55.8302832  15.7532052
  22.1167676  55.0105207  14.8339664  22.2466714  55.2309747  15.5750143
  15.2924875  62.6406812  11.0806435  15.3935238  61.8307166  11.3903563
  14.6966620  62.5463758  10.4506114  15.2197414  62.5071840  11.0332674
  23.9515869  56.5802353   6.5671810  23.8355395  57.3310039   6.9963949
  24.7471755  56.3226306   6.8167897  24.0520458  56.6537200   6.6675902
  15.1325615  67.5584401  12.4821291  15.7763070  67.9997565  12.8717450
  15.4581870  66.7537827  12.3951550  15.2757443  67.5049596  12.5266768
  10.7880007  50.8312829  13.6043076  10.1685038  50.2405476  13.4353091
  10.6863870  51.4224264  12.9707400  10.6817682  50.8316911  13.4848066
  17.8847902  52.5712371   7.9375540  18.5828067  52.7500498   8.4297003
  18.2000235  52.0482710   7.3145929  18.0343239  52.5206143   7.9177550
  10.5149140  54.3765111  15.8486645  10.3907837  54.9627556  16.4836464
  11.1667424  53.8825306  16.1498920  10.5922789  54.3903915  15.9872575
  18.0735838  58.9582816   7.9255331  18.5129473  58.3499916   8.3710104
  17.9240501  58.5790189   7.1540796  18.1157303  58.8121287   7.8774498
  15.5407481  57.5526828  15.1274157  16.1856483  57.0599271  14.8085105
  15.7809258  57.6951614  15.9540235  15.6718066  57.5004270  15.2023690
  18.0793572  60.3981733  14.7781049  18.3616815  59.6033139  14.5567805
  18.8079732  60.8762321  14.7986110  18.2283136  60.3516330  14.7484064
  16.0574766  47.9404767  12.0196814  15.7278096  48.3915911  11.3500513
  15.3819768  47.8620931  12.5669821  15.9085202  47.9955903  12.0020037
  21.6745174  57.3109997   4.8786100  21.5896469  58.1670964   5.0235669
  22.1629557  57.0354321   5.5468259  21.7334071  57.3967318   4.9988182
  23.2651174  43.9290290  10.2646425  22.9504615  44.6193769  10.6966847
  22.7478115  43.8735073   9.5631925  23.1415644  44.0225179  10.2243374
  22.6063607  53.9294791   6.3783835  22.0775079  54.1454425   7.0381142
  23.1288627  54.6230930   6.2984805  22.6052060  54.0637928   6.4639435
  28.0611660  59.5041096  11.7516880  27.2309363  59.7151739  11.9150296
  28.0120913  58.6778150  11.4759163  27.9318396  59.4130702  11.7354245
  16.1221398  62.3344950  14.5864789  15.6048340  61.9752365  13.9826097
  16.8195789  61.8107124  14.5970855  16.1486979  62.2042638  14.4995048
  19.7784990  62.7839764  20.5480962  19.8668336  62.5965904  21.3959173
  20.2074702  62.1377193  20.1485809  19.8547092  62.6602772  20.6152714
  17.3455450  62.0670924  19.5298625  16.7826284  61.6543534  20.0538286
  18.1076473  61.9923830  19.9491768  17.3749898  61.9948324  19.6691625
  18.9540430  54.0723660   3.6560224  19.1936433  54.2801644   2.8435567
  19.2756271  53.2681169   3.7649168  19.0377588  53.9837761   3.5520777
  14.2630720  46.0017056   7.5019762  15.0176688  46.3695373   7.2636812
  14.0858255  46.3756610   8.2698941  14.3485198  46.1115244   7.5804650
  12.9051441  64.0568945  12.1335255  13.6072020  63.5420934  12.1908011
  12.8248924  64.3843096  12.9382130  12.9975202  64.0283171  12.2608047
  27.5565619  52.1511496  15.5467301  26.7194040  52.2213683  15.7814896
  27.5253850  52.1535991  14.6741604  27.4283901  52.1621723  15.4526849
  13.9530348  54.2944532  21.2615670  14.1250851  54.1850427  22.1100951
  14.4899705  54.9398937  21.0246862  14.0575352  54.3736534  21.3520767
  12.6187785  48.4087375   4.1997875  12.4363358  48.6259256   3.3738868
  13.4813398  48.5226388   4.2556489  12.7192374  48.4577273   4.0852362
  12.2302217  60.2475297  11.6420863  13.0691116  60.4798230  11.6894624
  12.2613986  59.3779608  11.5727898  12.3583934  60.1532244  11.6385507
  12.8554920  60.6676172  15.9434168  13.3953145  60.5247303  16.6137541
  12.1724866  61.0672923  16.3118195  12.8347073  60.7055843  16.0968590
  18.2987504  45.4113786   7.2346899  19.0273664  45.2329740   6.7885055
  18.3882397  46.2531865   7.4454077  18.4194166  45.5097664   7.2000416
  22.2795804  56.3467173  11.1379193  23.0353319  56.7798687  11.1768101
  22.3858129  55.6971943  11.7113829  22.4065975  56.3144657  11.2277218
  25.3175976  60.1740450  11.8881596  24.8811207  60.1777193  12.6440567
  24.9838891  60.8545949  11.4561173  25.2038596  60.2752906  11.9362428
  19.8905049  62.2148783  23.2124746  20.6745466  62.3279631  23.5780488
  19.6901644  61.3889920  23.4083432  19.9771075  62.1095502  23.2959132
   8.2592065  56.8876463  16.0968590   7.9930480  56.0715580  16.2559580
   8.2730629  56.9329619  15.2264105   8.2216787  56.7733368  15.9922072
  25.2373458  47.2154278  14.1311024  25.8799367  47.2852383  14.7172939
  25.4896479  46.5483501  13.6290565  25.3695591  47.1280627  14.1438303
  13.0090671  50.4254841  18.7435598  12.3162468  49.9551821  18.9896329
  13.6250998  50.1993146  19.3177305  12.9975201  50.3221973  18.8644750
  20.0475443  64.1258885  16.8591202  19.2490688  63.8858385  17.1165070
  20.4961454  64.1773278  17.6058249  19.9950054  64.0981276  17.0076126
  28.4520322  56.8921370  10.7801233  29.1136756  56.3312038  10.6797141
  27.8111734  56.3973401  11.1053924  28.4549189  56.7357779  10.8133573
   8.6685478  57.6735242  13.3780334   8.4861052  57.6482128  12.5252626
   9.4035147  58.1434180  13.4169243   8.7499542  57.7396605  13.2578253
  24.7385152  57.9086752  10.5213222  24.9740742  58.0531951   9.6940072
  24.8874716  58.6729160  10.9144735  24.7950956  58.0425807  10.4576826
  11.7331230  54.3920245  19.8862443  12.4571202  54.3773276  20.3727337
  11.8347366  55.1015601  19.3884411  11.8549439  54.4944949  19.8841230
  26.5675609  56.7488418   8.3582825  26.8983826  57.2816058   7.7522920
  27.1408697  56.8027306   9.0144776  26.7009288  56.8357987   8.3660607
  19.1076179  57.8719330  24.7511390  18.3149160  58.1862842  24.9364009
  19.2225106  58.0870798  23.9132174  19.0071590  57.9503167  24.6549725
  21.7807498  54.5953321   9.0406406  21.8754353  55.3342615   9.4946031
  21.1566342  54.1670797   9.4740970  21.7016528  54.6414642   9.1714553
  20.0359972  57.7739534  19.6896686  20.6098834  57.1366778  19.8445250
  19.9574776  57.7743616  18.8206344  20.1093207  57.6804645  19.5843097
   8.6356389  54.5528743  13.5279401   9.2129891  54.4165194  14.1671646
   7.9370450  54.0964527  13.7824985   8.6177410  54.4651009  13.6601690
  22.0330520  56.4402061   2.2743358  21.9510682  56.5104248   3.1398345
  22.6710240  57.0031805   2.0827098  22.1150357  56.5341032   2.3733307
  15.3923691  56.2062799  11.7417884  15.1342935  55.3734534  11.7149183
  15.4472174  56.4320412  10.9010384  15.3623469  56.1160570  11.6138021
  20.4724741  48.3091249  11.8421977  19.7681068  47.8200435  12.0005896
  20.5209715  48.3213724  10.9710421  20.3754793  48.2380897  11.7361316
  14.3658403  53.7600561  12.2282779  13.7907994  53.9192730  12.8646740
  13.9894079  53.1235970  11.7651229  14.2261215  53.6898374  12.2537337
  18.0331692  52.2323911  17.0875157  17.6446124  51.8078128  16.4327348
  17.3686390  52.4806060  17.5952184  17.8778619  52.2062632  17.0663025
  27.6754961  51.9898915   9.8622987  27.4191526  51.1778857   9.6720870
  28.5184275  51.9976482   9.6353174  27.7620986  51.8710913   9.8007804
  21.8558053  45.9298539  14.5999141  22.2368565  45.2476710  14.9867015
  21.0521337  45.6408141  14.4174806  21.7934515  45.7865588  14.6303197
  19.1370630  56.4622515   5.2851964  19.9511269  56.7537408   5.1734735
  19.0729771  55.8082377   4.7110257  19.2473369  56.4087710   5.1840801
  25.3580120  59.1448511  19.6981540  25.1218757  58.3136576  19.5793600
  26.0023349  59.0934118  20.2836384  25.4174791  59.0146199  19.7667433
  15.0078538  59.9344033  10.4124276  15.6452485  59.6955780  10.9576069
  15.4333610  60.1381192   9.6777437  15.1654704  59.9295043  10.3841433
   9.6991181  62.1732369  14.2958580   9.7395326  62.4447220  13.4678359
  10.2585705  62.6974277  14.7116368   9.7874526  62.2908124  14.2350468
  15.8149894  48.4352738  24.4661750  15.5003335  49.2052300  24.2031312
  15.4939826  47.8722994  23.8813977  15.7208813  48.4663006  24.3403100
  26.3816541  58.9292960  15.7609834  26.0762358  59.6621017  16.1223150
  25.6622756  58.5230890  15.4802620  26.2303883  58.9774693  15.7722971
  17.3900010  60.4116455  12.0918062  17.4639018  60.2491627  12.9459912
  18.2069516  60.6006645  11.8478544  17.5216369  60.4153198  12.1816088
  32.0818333  55.5685961  15.0878178  32.0142833  55.5881920  14.2180765
  32.0673995  56.4116288  15.3133849  32.0697089  55.6959695  14.9930655
  13.3681791  46.8243259  10.0807946  12.5004216  46.8965859  10.1465555
  13.6556995  47.6265338  10.2695921  13.2821539  46.9537406  10.1182713
  22.4914679  46.9721118  18.4119268  23.2368271  46.7830929  17.9982693
  22.0751984  47.4979356  17.8533124  22.5399653  47.0223264  18.2683841
  29.8676950  54.3430347  13.3624773  30.4184872  53.7098416  13.6021865
  29.8521065  54.8745740  14.0540277  29.9462146  54.3279295  13.5003631
  16.5199341  58.1768944  17.9084666  16.0211035  58.8884712  17.9869555
  17.3299565  58.4969611  17.8702829  16.5655448  58.3295793  17.9141235
  12.7827459  57.4391897  12.1547387  12.4940707  56.8129368  12.6893114
  13.6510807  57.3812185  12.2212068  12.8687710  57.3379441  12.2438342
  23.5705356  52.5826681  12.4729369  23.2270122  51.8617016  12.8236619
  23.6698399  52.3740532  11.6307727  23.5347399  52.4450884  12.4001049
  24.0318385  59.0452385   8.0153357  24.5976418  59.7045595   7.9311900
  23.3846289  59.3902083   8.4869759  24.0197142  59.1934326   8.0726114
  15.4466399  51.0349989  23.2046965  14.6366175  51.3407768  23.0936807
  15.9241086  51.7555571  23.3199549  15.3969878  51.1864590  23.2054036
  14.3057959  60.2495710  13.4529868  13.7838712  60.3896001  14.1381732
  14.6931979  59.4906374  13.6431985  14.2861659  60.1581233  13.5830944
  11.2949143  50.3001518   7.5224822  11.0073938  49.9302789   6.7856770
  11.9819611  50.7696374   7.2608527  11.3538040  50.3148488   7.3739898
  20.5024964  61.9891169   7.4390436  20.2611639  61.2559030   7.0317501
  20.6826296  62.5378026   6.7856770  20.4932587  61.9613560   7.2820659
  15.7324284  57.2799729   8.8511359  15.5367067  57.8874463   8.2571662
  15.9558630  56.5867673   8.3703033  15.7358925  57.2677254   8.6927439
  14.1302814  54.1654467   8.9692227  14.8525466  54.3295625   8.5096033
  13.6510807  54.8864131   8.8631567  14.1666545  54.2952696   8.8857841
  22.0896322  50.5018265  14.3488912  21.2507422  50.5279544  14.1127175
  22.1600689  51.1489001  14.9294259  21.9764715  50.6014391  14.3998029
  11.7810431  56.5712539  18.0746367  12.2931528  56.8496792  17.4255127
  11.4946773  57.3101833  18.4409180  11.8145294  56.7214893  18.0336245
  20.5365600  47.4003642   9.0816528  21.2391953  47.2011391   8.6036486
  20.2709789  46.6279585   9.3885371  20.6012232  47.2566608   9.0561969
  25.9653846  55.7086252  11.6350154  25.8787820  55.8641678  12.4884933
  25.5104326  56.3524328  11.2609559  25.8857102  55.8262007  11.7057260
   8.8677337  51.0782731   8.3710103   8.9693474  51.8808892   8.6991079
   9.6633224  50.8770067   8.0733184   9.0005243  51.1668630   8.3745459
  15.2994156  48.6638928  18.1347408  15.1077353  48.6794062  18.9846832
  16.1492752  48.8602602  18.1114063  15.3969878  48.6953279  18.2570703
   9.6841069  51.1929909  16.1131225   9.5426561  50.3413850  16.2375733
   9.9681633  51.2358570  15.2893431   9.7048915  51.0729659  16.0098849
  19.8379662  53.0296999  10.2575713  19.5914376  52.9492750  11.0912502
  20.1664785  52.2450467  10.0638241  19.8500905  52.9023265  10.3523236
  23.7327710  59.7380359  14.0462494  23.5942070  60.4361404  14.5511237
  22.9527708  59.5829015  13.6898676  23.5970937  59.8180525  14.0688769
  22.0705796  56.0376734  20.2984876  22.0653834  55.1656550  20.3027303
  22.7766789  56.2364903  19.8254332  22.1750800  55.9380608  20.2291912
  15.7976689  55.7653718  19.6698696  15.9420065  56.3454926  19.0341806
  16.1452337  56.1430015  20.3748551  15.8704150  55.9074422  19.6797691
  17.9696606  54.9643886  17.4523828  17.2219920  55.1574901  17.0472106
  18.1238132  54.1389106  17.2147949  17.8819034  54.8708998  17.3569234
  14.8704444  63.9556490  16.5359723  15.0194008  63.3959405  15.8833128
  15.6504446  64.0348491  16.9192242  15.0078538  63.8842055  16.4956672
  25.2281083  59.0958612   4.8078994  24.8487892  58.3095750   4.8008283
  24.5647329  59.6445469   4.6650638  25.0739558  59.0603436   4.7859791
  17.3957745  64.1271133  17.8144214  17.3201416  63.4579943  18.3695002
  17.3247604  64.8288921  18.3284880  17.3738351  64.1316040  17.9721062
  18.2098383  48.8594437  18.3419232  18.6670997  49.5918411  18.4692024
  18.2854712  48.4360902  19.1006487  18.2889353  48.9051675  18.4720308
  10.4531375  49.1060257  19.4308675   9.9173564  48.4940615  19.7469443
  10.5149139  49.6808393  20.0842342  10.3827007  49.1007184  19.5744102
  22.6825709  42.0384312  12.2113075  22.8009277  42.4960775  11.4780377
  22.5087885  41.2329573  11.9249292  22.6744880  41.9878084  12.0614008
  18.0527991  62.6472131   8.6467820  18.8177883  62.3781775   8.3250484
  17.9506081  62.1622142   9.3637883  18.1509487  62.5361696   8.7047647
  16.0880761  50.8496541  15.1861056  15.2976836  50.6688001  15.5078391
  16.4841384  50.0723493  15.1691350  16.0297637  50.7084002  15.2313604
  21.4724448  58.4838971  12.9120502  20.7969449  58.2524203  13.4133889
  21.4816824  57.8760154  12.2862607  21.3742952  58.3597896  12.8936654
  18.6018592  53.3256800  19.6684555  18.5377733  54.1866756  19.5404691
  18.7415779  53.0088793  18.8680106  18.6134062  53.4056967  19.5312767
  23.4741182  61.3404103   5.1430679  23.5561020  62.1471090   4.8192130
  23.9590924  61.3600063   5.8671453  23.5578340  61.4624766   5.2017578
  17.2837685  56.0188939  13.8100757  16.8599935  56.2193438  13.0739776
  17.1082541  55.1717787  13.9225057  17.1948566  55.9237721  13.7174448
  16.7849379  67.5339452  16.2722215  17.2745309  66.8350241  16.0897879
  16.2133611  67.2363322  16.8598272  16.7733909  67.3865676  16.3323256
  12.5720130  56.5140991   9.2428730  12.7284750  56.4487794  10.0984722
  12.9120723  57.2889543   9.0307410  12.6453365  56.6190189   9.3383324
  19.1099275  55.8898874   8.1122093  19.6514820  55.3869255   8.5760714
  19.4245834  55.8364069   7.3011578  19.2363672  55.8078295   8.0605905
  22.9816382  60.1001522  25.2249005  23.7951248  59.8286671  25.3854138
  22.8211349  59.8009062  24.4209201  23.0786331  60.0156448  25.1294411
  20.2588544  50.7835179  18.1644394  20.4730514  50.1446093  17.6107748
  19.6422444  51.2281003  17.7352255  20.1993874  50.7545322  18.0194825
  21.6693212  63.7053927   9.6098615  21.2773004  63.4020642   8.8921481
  21.8246285  64.5423017   9.4203568  21.6346802  63.7837764   9.4755112
   9.1454392  53.6975941   9.5589497   9.5253357  54.1160486   8.8949764
   8.5709757  54.2789397   9.8658340   9.1165717  53.8453800   9.5066238
  22.4227632  52.3924244  19.1027701  21.6104314  52.0850134  19.1840873
  22.8817567  51.9123244  19.6670413  22.3708017  52.2760736  19.1982295
  21.8332887  60.2703916   9.5504645  21.4747542  60.4418559  10.3268677
  21.3471598  60.7317122   8.9932644  21.7091584  60.3642887   9.5829914
  19.6503273  43.8935114  13.1531736  18.7796831  43.8673836  13.1065046
  19.9043614  43.7212307  12.3357582  19.5596833  43.8645258  13.0251873
  19.5181140  53.7984315  23.8856403  19.9880771  54.4226432  24.2724277
  19.5643020  53.1301291  24.4449618  19.5949016  53.7918996  24.0256474
  16.6752414  45.9041343  14.6105207  16.1590902  45.2121534  14.7356786
  16.1146342  46.5712120  14.5567806  16.5158927  45.9004601  14.6211273
  18.7444647  46.4434303  16.4398059  18.3576400  46.4683334  17.2211589
  18.2577584  45.8775982  15.9872576  18.6157156  46.3630054  16.4885963
  22.9937626  61.1607812  20.4971846  23.6317347  60.6668008  20.1634302
  22.3511718  61.0885212  19.9124073  22.9931853  61.0766820  20.3614201
  24.7194626  53.0096958  15.0637762  24.2922235  52.9223306  14.3085861
  24.0820679  53.1174733  15.6492606  24.5624234  53.0129618  15.0383203
  18.4101789  43.3301288  18.7308319  19.0394907  43.8661588  18.4529390
  18.5787651  43.2378647  19.5821885  18.5279583  43.3962651  18.8156847
  18.2115704  48.1172483  21.0034731  19.0389133  47.8457632  21.0593345
  18.2323550  48.9133325  21.3598549  18.3368554  48.1952237  21.0649914
  23.0491883  61.8527620  17.1377203  23.8384261  61.5016685  17.2579284
  23.2235481  62.6664009  16.8753837  23.1912165  61.9213477  17.1165071
  12.7885193  55.2636346  14.1904992  11.9473200  55.1640220  14.3983885
  12.9975201  56.0331826  14.5419312  12.6949886  55.3628389  14.2732306
  10.2660760  52.8855883  12.0189742   9.8717458  52.9598895  11.2439852
   9.7100877  53.2713829  12.5698104  10.1263573  52.9537658  11.9857402
  21.9025707  45.8637177  11.6993621  22.1075301  45.7959485  12.5450618
  21.5752131  46.6695998  11.6314799  21.8840955  45.9723117  11.8153276
  16.6001858  53.1917745  13.4402589  16.2964996  52.6373733  14.0412997
  15.8981279  53.3709955  12.9530623  16.4518068  53.1362527  13.4572295
  15.6567955  50.5018265   8.0047291  15.9327690  49.7837177   7.5924858
  16.2566625  51.1003185   7.7968397  15.7861220  50.4838636   7.9128052
  14.6620209  60.4067466  18.1474687  14.5540564  60.4169528  19.0136745
  14.8715991  61.2322246  17.9579641  14.6770320  60.5308541  18.2478778
  25.1559395  46.4168941  11.1796387  24.5433708  46.9039343  11.5650118
  25.2523570  45.7412432  11.7234038  25.0797292  46.3887250  11.3175245
  19.1578476  48.1731782   6.2793886  19.6122222  48.3442343   7.0041730
  19.6318522  47.5599893   5.8791662  19.2946796  48.1082668   6.3267648
  12.6794001  57.6580108  15.6096624  12.0881935  58.2989606  15.5799640
  13.4415025  58.0817726  15.5827924  12.7042262  57.8155947  15.6011772
  13.0754624  48.8182106  16.2764642  13.5356106  48.8921035  17.0139766
  13.1210731  49.6163360  15.9264463  13.1505179  48.9476253  16.3337399
  14.7237974  49.4848801  20.8436669  14.3323539  48.8382148  21.2792447
  14.8923837  50.0760236  21.4630925  14.6908884  49.4763069  20.9999375
  28.7984423  57.4885878  16.6073903  28.8567547  57.9372527  17.3533879
  28.1650890  57.8984691  16.1703983  28.7135718  57.6159613  16.6526451
  22.4383518  63.1089420  13.0428649  22.2403206  63.5980234  12.3484860
  21.8171229  63.3130661  13.6212782  22.3171082  63.2105958  13.0251872
  16.4991496  54.8774317   7.3838893  17.2433541  55.2648593   7.6221843
  16.6452192  54.0331742   7.5479381  16.6302081  54.8104789   7.4432863
  18.4171071  46.6724576  12.4170755  17.5707116  46.8447383  12.2912104
  18.4142204  45.8673919  12.7536583  18.2918221  46.5785604  12.4481882
  19.4869372  50.4499790  13.2832812  19.0129326  49.9241552  13.7938123
  19.8587508  49.9029263  12.7147674  19.4719261  50.2915787  13.2747960
   9.8642402  52.4471297  18.6516358  10.7268015  52.3467006  18.5653688
   9.5334185  51.8666006  18.0901930   9.9427598  52.3462923  18.5561764
  25.7506102  55.5102166  14.6939593  25.5104325  54.6708581  14.6982019
  26.2298109  55.5902332  15.4180367  25.7858286  55.3983565  14.8014395
  21.4152871  51.3436345   6.3458566  20.8875890  51.4265089   5.6564275
  21.8748580  52.0854216   6.3423211  21.4054722  51.4657007   6.2433261
  27.7511289  52.2903623  12.6468852  27.5121059  52.2499457  11.8089637
  27.9145191  53.1374775  12.7734573  27.7401593  52.4095708  12.5422334
  24.3557319  56.6753572  18.5773897  25.0791518  56.2226099  18.3984917
  24.0907282  56.9558238  17.7946225  24.4238593  56.6504541  18.4352613
  13.2244188  51.2713746  15.3126776  12.5997258  51.2832138  14.7052729
  12.8889783  51.7473921  15.9618017  13.0829680  51.3432263  15.3183345
   9.9369863  59.3314206  16.7530541   9.4069788  58.6406645  16.8025515
  10.2094957  59.3224391  15.9243249   9.8994586  59.2281338  16.6377957
  20.9689954  59.9139908   5.4768223  21.6924153  60.3798021   5.3332797
  20.5290545  59.9813518   4.7265820  21.0105646  59.9923745   5.3453005
  20.1376109  56.7737450  16.7268912  19.5233102  56.2295501  17.0217548
  20.6543394  56.2601687  16.2474728  20.1231771  56.6173859  16.6993141
  19.3772406  57.8441720  14.4613211  18.9500014  57.2191439  14.0278646
  19.3697351  57.5616642  15.2872218  19.3131547  57.7094501  14.5193039
  12.4934933  52.8806893  17.5301645  12.6528420  52.1250218  17.9353367
  12.3127827  53.4297833  18.1842383  12.4900292  52.8500707  17.6864351
  20.4355236  45.0468129  18.0852434  19.9395797  45.2431803  17.3944001
  21.1924298  45.4460797  17.9141236  20.4742061  45.1345863  17.9572571
  17.7058116  48.7210475  14.6755745  17.7300603  48.1870587  13.9868525
  17.9569589  48.2127784  15.3381336  17.7468034  48.5671379  14.6720390
  13.9859438  47.4481293  14.0561489  14.0257810  47.9490500  14.7696197
  13.1609103  47.5391687  13.7867412  13.8698964  47.5363109  14.1212028
  16.1689051  57.0142033  22.1581784  15.3184681  57.1513747  22.2939429
  16.3317179  56.2805811  22.6029486  16.0672914  56.9256134  22.2437383
  15.4073801  53.9641803  16.3535388  14.5765731  54.1315621  16.1470636
  15.3525319  53.5877754  17.1384274  15.2763216  53.9331534  16.4383916
  13.2157585  47.4550696  21.9891799  13.8410288  46.9112829  22.2621231
  12.7608065  46.9745614  21.4199589  13.2405845  47.3040177  21.9453393
  13.7809845  52.2397395   6.8825506  13.9212806  52.7369859   7.5854147
  14.2792378  51.5383689   7.0239720  13.8750926  52.2099373   7.0077085
  26.7892633  55.6379983  17.0804447  27.3810474  56.2777234  17.1122645
  27.2251628  54.9403020  17.3696514  26.9411065  55.6298333  17.1285280
  15.3889050  49.0378481   4.1863525  15.7104892  48.5581564   3.5322787
  15.6515994  49.8478127   3.9954336  15.4755076  49.0868379   4.0619017
  18.6186023  60.0597355  17.7062341  18.1111114  60.6133202  18.1502971
  18.3212669  60.1205645  16.8881115  18.4990908  60.1503667  17.6510798
  20.7848205  48.4250675  16.5487004  21.2103277  47.9723201  15.9370530
  20.1705199  47.8710746  16.8251791  20.7576851  48.2764651  16.4992029
  19.2242428  44.8965775   9.9577581  18.5810746  44.7463421  10.5262719
  18.8841835  44.6508120   9.1926686  19.0787506  44.8377897   9.9280596
  17.8628509  64.9921914  14.6119348  17.6394163  64.2340743  14.9803374
  17.3738352  65.0219935  13.8899788  17.7571958  64.8844138  14.5596089
  23.9769902  49.3081085  12.2897963  24.3297512  48.8810808  12.9643761
  23.1184704  49.2231929  12.4199039  23.9019347  49.2325826  12.4092973
  12.6753587  51.9388605  10.3480809  11.9565576  52.3552737  10.6153673
  13.0465950  52.5042844   9.7972447  12.6245519  52.0837886  10.3063616
  21.9753168  52.5716454  16.2382805  21.9551095  52.3899749  17.0917584
  22.0232369  53.4428472  16.2142389  21.9787809  52.6732992  16.3606100
  19.9199498  59.1603646  22.1631282  19.8795353  58.5153323  21.5776437
  20.7322816  59.1040263  22.4756694  20.0342651  59.0562613  22.1228231
  16.5106965  65.2122372  12.0656432  16.0967364  64.5496502  11.6760274
  17.1954340  65.3600230  11.5452127  16.5505337  65.1363030  11.9312930
  19.8772260  64.3712457  12.8180049  19.4788543  64.4814727  12.0500869
  19.2623479  64.5794523  13.4006609  19.7271149  64.4186025  12.7911348
  18.4500162  50.9786605   5.6854189  17.8565001  51.3003601   5.1338756
  18.4875439  50.1327700   5.4775295  18.3674551  50.9010933   5.5736960
  25.4093962  44.4299497  13.2182275  24.9024827  43.7228637  13.1503453
  26.2061396  44.0992686  13.3483352  25.4521202  44.2772648  13.2281270
  21.3257978  50.9366109   9.1155939  21.0971671  50.9598811   8.2734297
  21.5856054  50.1123576   9.2350949  21.3304166  50.8182189   9.0081137
  15.6077207  52.7900582  18.7181039  15.0956110  52.1821765  19.0766071
  15.4356703  53.5057175  19.1855015  15.5066844  52.8063882  18.8397263
  10.4542921  51.2338158  21.3683401  10.2845512  51.8939532  20.8231608
  10.0108871  51.4444719  22.0895890  10.3642255  51.3624140  21.3945030
  14.3802741  49.4742656  10.4110135  14.8560107  49.8359735   9.7760316
  13.8791340  50.1299123  10.6910277  14.3768100  49.6236844  10.3586876
  27.6114102  58.9464424   6.2023140  27.9947708  59.6955780   6.4321237
  26.8158216  59.1930243   5.9435129  27.5507885  59.0934118   6.1980713
  19.4846277  50.7124827  21.1583295  20.0417707  50.4838637  20.5261760
  19.1607342  51.4730493  20.8818507  19.5192687  50.7908664  21.0239792
   7.3544986  54.1385023  16.6271891   6.8071705  53.4685669  16.7452759
   8.1437364  53.7714871  16.6915358   7.3897170  53.9850010  16.6540591
  17.2029394  53.7992480  22.1235302  17.9540721  54.1144157  22.4374856
  17.3951971  53.5971651  21.2969224  17.3420808  53.8159862  22.0478698
  16.4229394  51.6183855   3.7783519  16.8028359  51.6363485   2.9934633
  15.6821990  52.0637844   3.6574366  16.3698232  51.6865630   3.6447087
  24.0514684  49.9266047   9.3659097  24.0508911  49.7714703  10.2243374
  23.8470864  50.7729034   9.3100483  24.0214462  50.0286667   9.4847037
   6.1131955  53.3505831  13.7817914   5.9353716  52.8982440  14.5072829
   5.8250977  54.1531992  13.9656391   6.0444909  53.4028389  13.9161417
  21.7755536  54.6063548  13.0195304  22.2709202  53.8886543  12.9799324
  20.9655312  54.3034346  12.9049791  21.7299430  54.4561195  12.9969030
  23.8407355  57.3567236  15.7072433  24.2662427  56.8341658  15.1542858
  23.4764275  57.9548073  15.1861056  23.8493958  57.3677463  15.5481443
  13.4761435  65.6531453  14.4669778  13.7907994  66.4667842  14.4747560
  13.8854848  65.2681672  15.1351938  13.5829533  65.7160156  14.5673870
  20.4285955  61.0701500  12.0373590  20.8997133  61.7841763  12.2063576
  20.7646133  60.4700250  12.5733460  20.5481070  61.0872964  12.1405966
  22.5162939  62.6802814  24.2165662  22.6259905  61.8911374  24.5722410
  22.8453836  62.5908750  23.4140001  22.5815345  62.5508666  24.1508053
  17.3455450  45.8428971  18.9931685  17.4783355  45.0459964  19.3212661
  17.7300602  46.3695374  19.5729961  17.4211779  45.8028887  19.1275188
  21.0659901  60.8619434  18.8001283  20.5180847  60.2377318  18.5321348
  21.5272930  61.0513706  18.0845362  21.0527111  60.7978484  18.6551714
  20.4187805  42.7659297  15.5912778  19.6133769  42.6557026  15.9080617
  20.2894540  42.8671753  14.7342644  20.2807938  42.7642967  15.5120819
  23.8753765  48.9304789  16.1852475  23.2916754  49.4313995  15.7730043
  24.1958059  48.4234345  15.5516799  23.8366941  48.9296624  16.0310983
  16.4148565  47.8445384   6.4611150  17.2364259  48.0143696   6.2192845
  15.9518215  47.9992645   5.7377448  16.4679727  47.8927117   6.3182794
  15.0043896  45.8388146  17.2409579  15.5488309  45.4979273  17.8313921
  15.0580832  46.6973607  17.3830864  15.0933016  45.9143405  17.3491452
  10.8174455  59.6004562  14.1148387  11.4219313  59.5600396  13.4862208
  10.6101768  60.4475714  14.1452443  10.8763353  59.7192564  14.0264503
  20.6318227  61.8670507  15.3310624  21.4516601  61.7233473  15.5926919
  20.3512305  62.4916706  15.8727062  20.7114971  61.9380859  15.4498564
  37.1031878  69.5235359   8.2953501  37.0725882  70.3779995   8.4671770
  37.7013226  69.2230651   8.8539644  37.1869036  69.6051855   8.4028303
  30.3031563  68.6111010  13.0506431  29.4469458  68.7719508  13.1015548
  30.3499216  67.7403074  13.0711492  30.1830674  68.5061812  13.0612497
  33.6125279  74.8797535  22.6566887  34.3192046  74.3849566  22.7853822
  33.8013215  75.3206617  21.9269545  33.7453185  74.8715886  22.5675933
  33.1483384  70.6703054  15.6938083  33.6939344  71.3488140  15.7532052
  33.0900260  70.5290514  14.8339664  33.2199298  70.7495055  15.5750143
  21.7612590  66.3498137  13.6043076  21.1417622  65.7590784  13.4353091
  21.6596454  66.9409572  12.9707400  21.6550266  66.3502219  13.4848066
  28.8580486  68.0897679   7.9375540  29.5560651  68.2685806   8.4297003
  29.1732818  67.5668018   7.3145929  29.0075823  68.0391451   7.9177550
  21.4881723  69.8950419  15.8486645  21.3640420  70.4812864  16.4836464
  22.1400008  69.4010614  16.1498920  21.5655373  69.9089223  15.9872575
  26.5140064  73.0712136  15.1274157  27.1589067  72.5784579  14.8085105
  26.7541841  73.2136922  15.9540235  26.6450649  73.0189578  15.2023690
  29.0526156  75.9167041  14.7781049  29.3349398  75.1218447  14.5567805
  29.7812316  76.3947629  14.7986110  29.2015719  75.8701638  14.7484064
  27.0307349  63.4590075  12.0196814  26.7010679  63.9101219  11.3500513
  26.3552351  63.3806239  12.5669821  26.8817786  63.5141211  12.0020037
  34.2383757  59.4475598  10.2646425  33.9237198  60.1379077  10.6966847
  33.7210699  59.3920381   9.5631925  34.1148228  59.5410487  10.2243374
  25.2363304  61.5202364   7.5019762  25.9909272  61.8880681   7.2636812
  25.0590838  61.8941918   8.2698941  25.3217782  61.6300552   7.5804650
  38.5298202  67.6696804  15.5467301  37.6926623  67.7398991  15.7814896
  38.4986433  67.6721299  14.6741604  38.4016485  67.6807031  15.4526849
  24.9262931  69.8129840  21.2615670  25.0983435  69.7035735  22.1100951
  25.4632289  70.4584245  21.0246862  25.0307935  69.8921842  21.3520767
  23.5920368  63.9272683   4.1997875  23.4095941  64.1444564   3.3738868
  24.4545981  64.0411695   4.2556489  23.6924958  63.9762581   4.0852362
  29.2720087  60.9299093   7.2346899  30.0006248  60.7515048   6.7885055
  29.3614980  61.7717173   7.4454077  29.3926749  61.0282972   7.2000416
  33.2528388  71.8652481  11.1379193  34.0085903  72.2983995  11.1768101
  33.3590712  71.2157251  11.7113829  33.3798559  71.8329965  11.2277218
  36.2908559  75.6925758  11.8881596  35.8543791  75.6962500  12.6440567
  35.9571475  76.3731257  11.4561173  36.1771179  75.7938214  11.9362428
  30.8637633  77.7334091  23.2124746  31.6478049  77.8464939  23.5780488
  30.6634227  76.9075228  23.4083432  30.9503658  77.6280810  23.2959132
  19.2324648  72.4061771  16.0968590  18.9663063  71.5900888  16.2559580
  19.2463212  72.4514927  15.2264105  19.1949371  72.2918676  15.9922072
  36.2106042  62.7339586  14.1311024  36.8531950  62.8037690  14.7172939
  36.4629063  62.0668809  13.6290565  36.3428174  62.6465935  14.1438303
  23.9823255  65.9440149  18.7435598  23.2895051  65.4737129  18.9896329
  24.5983582  65.7178454  19.3177305  23.9707785  65.8407281  18.8644750
  39.4252905  72.4106678  10.7801233  40.0869339  71.8497346  10.6797141
  38.7844317  71.9158709  11.1053924  39.4281773  72.2543087  10.8133573
  19.6418062  73.1920550  13.3780334  19.4593635  73.1667436  12.5252626
  20.3767731  73.6619488  13.4169243  19.7232126  73.2581913  13.2578253
  22.7063814  69.9105553  19.8862443  23.4303786  69.8958584  20.3727337
  22.8079950  70.6200908  19.3884411  22.8282023  70.0130256  19.8841230
  30.0808763  73.3904638  24.7511390  29.2881744  73.7048150  24.9364009
  30.1957690  73.6056106  23.9132174  29.9804173  73.4688475  24.6549725
  32.7540082  70.1138629   9.0406406  32.8486936  70.8527923   9.4946031
  32.1298925  69.6856104   9.4740970  32.6749112  70.1599950   9.1714553
  31.0092556  73.2924842  19.6896686  31.5831417  72.6552086  19.8445250
  30.9307359  73.2928924  18.8206344  31.0825791  73.1989953  19.5843097
  19.6088972  70.0714051  13.5279401  20.1862475  69.9350502  14.1671646
  18.9103034  69.6149835  13.7824985  19.5909994  69.9836317  13.6601690
  26.3656274  71.7248107  11.7417884  26.1075519  70.8919842  11.7149183
  26.4204757  71.9505720  10.9010384  26.3356052  71.6345878  11.6138021
  31.4457325  63.8276557  11.8421977  30.7413651  63.3385743  12.0005896
  31.4942299  63.8399032  10.9710421  31.3487376  63.7566205  11.7361316
  25.3390987  69.2785869  12.2282779  24.7640578  69.4378038  12.8646740
  24.9626663  68.6421278  11.7651229  25.1993799  69.2083682  12.2537337
  29.0064275  67.7509218  17.0875157  28.6178708  67.3263436  16.4327348
  28.3418974  67.9991368  17.5952184  28.8511203  67.7247940  17.0663025
  38.6487544  67.5084223   9.8622987  38.3924109  66.6964165   9.6720870
  39.4916858  67.5161790   9.6353174  38.7353570  67.3896221   9.8007804
  32.8290637  61.4483847  14.5999141  33.2101148  60.7662018  14.9867015
  32.0253921  61.1593449  14.4174806  32.7667098  61.3050896  14.6303197
  36.3312704  74.6633819  19.6981540  36.0951341  73.8321884  19.5793600
  36.9755933  74.6119426  20.2836384  36.3907374  74.5331507  19.7667433
  25.9811122  75.4529341  10.4124276  26.6185069  75.2141088  10.9576069
  26.4066193  75.6566499   9.6777437  26.1387288  75.4480351  10.3841433
  26.7882477  63.9538045  24.4661750  26.4735918  64.7237608  24.2031312
  26.4672410  63.3908302  23.8813977  26.6941396  63.9848314  24.3403100
  37.3549124  74.4478268  15.7609834  37.0494941  75.1806325  16.1223150
  36.6355340  74.0416197  15.4802620  37.2036467  74.4960001  15.7722971
  28.3632594  75.9301763  12.0918062  28.4371602  75.7676935  12.9459912
  29.1802100  76.1191953  11.8478544  28.4948952  75.9338505  12.1816088
  43.0550916  71.0871269  15.0878178  42.9875417  71.1067228  14.2180765
  43.0406579  71.9301596  15.3133849  43.0429673  71.2145003  14.9930655
  24.3414374  62.3428567  10.0807946  23.4736800  62.4151166  10.1465555
  24.6289578  63.1450646  10.2695921  24.2554122  62.4722714  10.1182713
  33.4647263  62.4906426  18.4119268  34.2100855  62.3016237  17.9982693
  33.0484567  63.0164664  17.8533124  33.5132237  62.5408572  18.2683841
  40.8409534  69.8615655  13.3624773  41.3917455  69.2283724  13.6021865
  40.8253649  70.3931048  14.0540277  40.9194730  69.8464603  13.5003631
  27.4931925  73.6954252  17.9084666  26.9943618  74.4070020  17.9869555
  28.3032149  74.0154919  17.8702829  27.5388031  73.8481101  17.9141235
  23.7560042  72.9577205  12.1547387  23.4673291  72.3314676  12.6893114
  24.6243390  72.8997493  12.2212068  23.8420294  72.8564749  12.2438342
  34.5437940  68.1011989  12.4729369  34.2002706  67.3802324  12.8236619
  34.6430982  67.8925840  11.6307727  34.5079983  67.9636192  12.4001049
  26.4198983  66.5535297  23.2046965  25.6098758  66.8593076  23.0936807
  26.8973669  67.2740879  23.3199549  26.3702461  66.7049898  23.2054036
  25.2790542  75.7681018  13.4529868  24.7571296  75.9081309  14.1381732
  25.6664562  75.0091682  13.6431985  25.2594243  75.6766541  13.5830944
  22.2681726  65.8186826   7.5224822  21.9806522  65.4488097   6.7856770
  22.9552194  66.2881682   7.2608527  22.3270623  65.8333796   7.3739898
  26.7056868  72.7985037   8.8511359  26.5099650  73.4059771   8.2571662
  26.9291213  72.1052981   8.3703033  26.7091509  72.7862562   8.6927439
  25.1035398  69.6839774   8.9692227  25.8258050  69.8480933   8.5096033
  24.6243391  70.4049439   8.8631567  25.1399128  69.8138004   8.8857841
  33.0628905  66.0203573  14.3488912  32.2240006  66.0464852  14.1127175
  33.1333273  66.6674309  14.9294259  32.9497299  66.1199699  14.3998029
  22.7543014  72.0897847  18.0746367  23.2664111  72.3682100  17.4255127
  22.4679357  72.8287141  18.4409180  22.7877878  72.2400201  18.0336245
  31.5098184  62.9188950   9.0816528  32.2124536  62.7196699   8.6036486
  31.2442372  62.1464893   9.3885371  31.5744816  62.7751916   9.0561969
  36.9386429  71.2271560  11.6350154  36.8520404  71.3826986  12.4884933
  36.4836909  71.8709636  11.2609559  36.8589686  71.3447315  11.7057260
  19.8409921  66.5968039   8.3710103  19.9426057  67.3994200   8.6991079
  20.6365808  66.3955375   8.0733184  19.9737826  66.6853938   8.3745459
  26.2726740  64.1824235  18.1347408  26.0809937  64.1979370  18.9846832
  27.1225336  64.3787910  18.1114063  26.3702462  64.2138587  18.2570703
  20.6573653  66.7115217  16.1131225  20.5159145  65.8599158  16.2375733
  20.9414216  66.7543878  15.2893431  20.6781499  66.5914967  16.0098849
  30.8112245  68.5482307  10.2575713  30.5646960  68.4678058  11.0912502
  31.1397368  67.7635775  10.0638241  30.8233489  68.4208572  10.3523236
  34.7060294  75.2565666  14.0462494  34.5674653  75.9546712  14.5511237
  33.9260292  75.1014323  13.6898676  34.5703521  75.3365833  14.0688769
  33.0438379  71.5562042  20.2984876  33.0386418  70.6841858  20.3027303
  33.7499373  71.7550211  19.8254332  33.1483383  71.4565916  20.2291912
  26.7709273  71.2839026  19.6698696  26.9152648  71.8640234  19.0341806
  27.1184921  71.6615322  20.3748551  26.8436734  71.4259730  19.6797691
  28.9429190  70.4829194  17.4523828  28.1952504  70.6760208  17.0472106
  29.0970715  69.6574414  17.2147949  28.8551617  70.3894306  17.3569234
  29.1830967  64.3779745  18.3419232  29.6403581  65.1103719  18.4692024
  29.2587296  63.9546210  19.1006487  29.2621937  64.4236983  18.4720308
  21.4263958  64.6245565  19.4308675  20.8906148  64.0125923  19.7469443
  21.4881723  65.1993701  20.0842342  21.3559591  64.6192492  19.5744102
  33.6558293  57.5569620  12.2113075  33.7741861  58.0146083  11.4780377
  33.4820469  56.7514881  11.9249292  33.6477464  57.5063392  12.0614008
  27.0613345  66.3681849  15.1861056  26.2709420  66.1873309  15.5078391
  27.4573968  65.5908801  15.1691350  27.0030221  66.2269310  15.2313604
  32.4457031  74.0024279  12.9120502  31.7702033  73.7709511  13.4133889
  32.4549407  73.3945462  12.2862607  32.3475536  73.8783204  12.8936654
  29.5751175  68.8442108  19.6684555  29.5110316  69.7052064  19.5404691
  29.7148363  68.5274101  18.8680106  29.5866645  68.9242275  19.5312767
  28.2570269  71.5374247  13.8100757  27.8332518  71.7378746  13.0739776
  28.0815124  70.6903095  13.9225057  28.1681150  71.4423029  13.7174448
  23.5452714  72.0326299   9.2428730  23.7017333  71.9673101  10.0984722
  23.8853307  72.8074851   9.0307410  23.6185949  72.1375497   9.3383324
  30.0831859  71.4084182   8.1122093  30.6247404  70.9054563   8.5760714
  30.3978418  71.3549377   7.3011578  30.2096256  71.3263603   8.0605905
  33.9548966  75.6186830  25.2249005  34.7683831  75.3471978  25.3854138
  33.7943932  75.3194370  24.4209201  34.0518914  75.5341756  25.1294411
  31.2321128  66.3020487  18.1644394  31.4463098  65.6631401  17.6107748
  30.6155027  66.7466311  17.7352255  31.1726457  66.2730630  18.0194825
  20.1186975  69.2161249   9.5589497  20.4985940  69.6345794   8.8949764
  19.5442340  69.7974705   9.8658340  20.0898300  69.3639108   9.5066238
  33.3960216  67.9109552  19.1027701  32.5836898  67.6035442  19.1840873
  33.8550151  67.4308552  19.6670413  33.3440601  67.7946044  19.1982295
  30.6235857  59.4120422  13.1531736  29.7529415  59.3859143  13.1065046
  30.8776198  59.2397615  12.3357582  30.5329417  59.3830566  13.0251873
  30.4913723  69.3169623  23.8856403  30.9613355  69.9411740  24.2724277
  30.5375604  68.6486599  24.4449618  30.5681599  69.3104304  24.0256474
  27.6484997  61.4226651  14.6105207  27.1323486  60.7306842  14.7356786
  27.0878926  62.0897428  14.5567806  27.4891510  61.4189908  14.6211273
  29.7177231  61.9619611  16.4398059  29.3308984  61.9868642  17.2211589
  29.2310168  61.3961290  15.9872576  29.5889739  61.8815362  16.4885963
  33.9670210  76.6793120  20.4971846  34.6049930  76.1853315  20.1634302
  33.3244302  76.6070520  19.9124073  33.9664436  76.5952128  20.3614201
  35.6927210  68.5282266  15.0637762  35.2654818  68.4408614  14.3085861
  35.0553263  68.6360041  15.6492606  35.5356817  68.5314926  15.0383203
  29.3834372  58.8486596  18.7308319  30.0127490  59.3846896  18.4529390
  29.5520235  58.7563955  19.5821885  29.5012167  58.9147959  18.8156847
  29.1848287  63.6357791  21.0034731  30.0121716  63.3642940  21.0593345
  29.2056133  64.4318633  21.3598549  29.3101137  63.7137545  21.0649914
  34.0224467  77.3712928  17.1377203  34.8116845  77.0201993  17.2579284
  34.1968064  78.1849317  16.8753837  34.1644748  77.4398785  17.1165071
  23.7617777  70.7821654  14.1904992  22.9205784  70.6825528  14.3983885
  23.9707785  71.5517134  14.5419312  23.6682470  70.8813697  14.2732306
  21.2393344  68.4041191  12.0189742  20.8450042  68.4784203  11.2439852
  20.6833461  68.7899137  12.5698104  21.0996156  68.4722965  11.9857402
  32.8758291  61.3822485  11.6993621  33.0807884  61.3144793  12.5450618
  32.5484715  62.1881306  11.6314799  32.8573539  61.4908425  11.8153276
  27.5734442  68.7103053  13.4402589  27.2697579  68.1559041  14.0412997
  26.8713863  68.8895263  12.9530623  27.4250652  68.6547835  13.4572295
  26.6300539  66.0203573   8.0047291  26.9060273  65.3022485   7.5924858
  27.2299208  66.6188493   7.7968397  26.7593804  66.0023944   7.9128052
  36.1291978  61.9354249  11.1796387  35.5166292  62.4224651  11.5650118
  36.2256153  61.2597740  11.7234038  36.0529876  61.9072558  11.3175245
  30.1311059  63.6917090   6.2793886  30.5854806  63.8627651   7.0041730
  30.6051105  63.0785201   5.8791662  30.2679380  63.6267975   6.3267648
  23.6526585  73.1765416  15.6096624  23.0614518  73.8174914  15.5799640
  24.4147608  73.6003033  15.5827924  23.6774845  73.3341255  15.6011772
  24.0487208  64.3367414  16.2764642  24.5088689  64.4106343  17.0139766
  24.0943314  65.1348668  15.9264463  24.1237763  64.4661561  16.3337399
  25.6970557  65.0034109  20.8436669  25.3056123  64.3567456  21.2792447
  25.8656420  65.5945544  21.4630925  25.6641468  64.9948377  20.9999375
  39.7717006  73.0071186  16.6073903  39.8300130  73.4557835  17.3533879
  39.1383474  73.4169999  16.1703983  39.6868302  73.1344921  16.6526451
  27.4724079  70.3959625   7.3838893  28.2166124  70.7833901   7.6221843
  27.6184776  69.5517050   7.5479381  27.6034665  70.3290097   7.4432863
  29.3903655  62.1909883  12.4170755  28.5439700  62.3632691  12.2912104
  29.3874787  61.3859227  12.7536583  29.2650805  62.0970912  12.4481882
  30.4601955  65.9685098  13.2832812  29.9861910  65.4426860  13.7938123
  30.8320091  65.4214571  12.7147674  30.4451844  65.8101094  13.2747960
  20.8374985  67.9656605  18.6516358  21.7000598  67.8652314  18.5653688
  20.5066768  67.3851314  18.0901930  20.9160182  67.8648231  18.5561764
  36.7238686  71.0287474  14.6939593  36.4836909  70.1893889  14.6982019
  37.2030693  71.1087640  15.4180367  36.7590870  70.9168873  14.8014395
  32.3885455  66.8621652   6.3458566  31.8608474  66.9450396   5.6564275
  32.8481163  67.6039524   6.3423211  32.3787305  66.9842315   6.2433261
  38.7243873  67.8088931  12.6468852  38.4853643  67.7684765  11.8089637
  38.8877774  68.6560083  12.7734573  38.7134176  67.9281016  12.5422334
  35.3289903  72.1938880  18.5773897  36.0524102  71.7411406  18.3984917
  35.0639865  72.4743546  17.7946225  35.3971176  72.1689849  18.4352613
  24.1976771  66.7899054  15.3126776  23.5729842  66.8017446  14.7052729
  23.8622366  67.2659229  15.9618017  24.0562263  66.8617571  15.3183345
  31.1108693  72.2922758  16.7268912  30.4965686  71.7480809  17.0217548
  31.6275977  71.7786995  16.2474728  31.0964355  72.1359167  16.6993141
  30.3504990  73.3627028  14.4613211  29.9232598  72.7376747  14.0278646
  30.3429934  73.0801950  15.2872218  30.2864131  73.2279809  14.5193039
  23.4667517  68.3992201  17.5301645  23.6261004  67.6435526  17.9353367
  23.2860410  68.9483141  18.1842383  23.4632876  68.3686015  17.6864351
  31.4087820  60.5653437  18.0852434  30.9128381  60.7617111  17.3944001
  32.1656882  60.9646105  17.9141236  31.4474644  60.6531171  17.9572571
  28.6790699  64.2395783  14.6755745  28.7033187  63.7055895  13.9868525
  28.9302173  63.7313092  15.3381336  28.7200618  64.0856687  14.6720390
  24.9592022  62.9666601  14.0561489  24.9990393  63.4675808  14.7696197
  24.1341686  63.0576995  13.7867412  24.8431548  63.0548417  14.1212028
  27.1421635  72.5327341  22.1581784  26.2917265  72.6699055  22.2939429
  27.3049762  71.7991119  22.6029486  27.0405498  72.4441442  22.2437383
  26.3806385  69.4827111  16.3535388  25.5498315  69.6500929  16.1470636
  26.3257902  69.1063062  17.1384274  26.2495800  69.4516842  16.4383916
  24.1890168  62.9736004  21.9891799  24.8142872  62.4298137  22.2621231
  23.7340648  62.4930921  21.4199589  24.2138429  62.8225485  21.9453393
  24.7542429  67.7582702   6.8825506  24.8945390  68.2555167   7.5854147
  25.2524962  67.0568997   7.0239720  24.8483510  67.7284681   7.0077085
  37.7625217  71.1565291  17.0804447  38.3543057  71.7962542  17.1122645
  38.1984212  70.4588328  17.3696514  37.9143648  71.1483641  17.1285280
  26.3621634  64.5563789   4.1863525  26.6837475  64.0766871   3.5322787
  26.6248578  65.3663435   3.9954336  26.4487659  64.6053687   4.0619017
  29.5918607  75.5782663  17.7062341  29.0843698  76.1318510  18.1502971
  29.2945253  75.6390953  16.8881115  29.4723492  75.6688974  17.6510798
  31.7580789  63.9435983  16.5487004  32.1835861  63.4908509  15.9370530
  31.1437782  63.3896054  16.8251791  31.7309434  63.7949959  16.4992029
  30.1975012  60.4151083   9.9577581  29.5543330  60.2648729  10.5262719
  29.8574419  60.1693428   9.1926686  30.0520089  60.3563205   9.9280596
  34.7874358  68.3710509   9.3807589  34.1165548  68.9140212   9.2520655
  35.4814109  68.8405365   9.1389284  34.7903226  68.5208781   9.3263117
  34.9502486  64.8266393  12.2897963  35.3030096  64.3996116  12.9643761
  34.0917287  64.7417237  12.4199039  34.8751930  64.7511134  12.4092973
  23.6486171  67.4573913  10.3480809  22.9298160  67.8738045  10.6153673
  24.0198533  68.0228152   9.7972447  23.5978103  67.6023194  10.3063616
  32.9485752  68.0901762  16.2382805  32.9283679  67.9085057  17.0917584
  32.9964952  68.9613780  16.2142389  32.9520393  68.1918300  16.3606100
  30.8932081  74.6788954  22.1631282  30.8527936  74.0338631  21.5776437
  31.7055400  74.6225571  22.4756694  31.0075235  74.5747921  22.1228231
  29.4232745  66.4971913   5.6854189  28.8297584  66.8188909   5.1338756
  29.4608023  65.6513008   5.4775295  29.3407134  66.4196241   5.5736960
  36.3826546  59.9484805  13.2182275  35.8757411  59.2413945  13.1503453
  37.1793980  59.6177994  13.3483352  36.4253785  59.7957956  13.2281270
  32.2990562  66.4551417   9.1155939  32.0704255  66.4784119   8.2734297
  32.5588638  65.6308884   9.2350949  32.3036750  66.3367497   9.0081137
  26.5809790  68.3085890  18.7181039  26.0688693  67.7007073  19.0766071
  26.4089286  69.0242483  19.1855015  26.4799427  68.3249190  18.8397263
  21.4275505  66.7523466  21.3683401  21.2578095  67.4124840  20.8231608
  20.9841455  66.9630027  22.0895890  21.3374839  66.8809448  21.3945030
  25.3535324  64.9927964  10.4110135  25.8292691  65.3545043   9.7760316
  24.8523924  65.6484431  10.6910277  25.3500683  65.1422152  10.3586876
  30.4578861  66.2310135  21.1583295  31.0150291  66.0023944  20.5261760
  30.1339926  66.9915801  20.8818507  30.4925271  66.3093972  21.0239792
  18.3277569  69.6570331  16.6271891  17.7804289  68.9870977  16.7452759
  19.1169948  69.2900179  16.6915358  18.3629753  69.5035318  16.6540591
  28.1761978  69.3177788  22.1235302  28.9273305  69.6329465  22.4374856
  28.3684554  69.1156959  21.2969224  28.3153392  69.3345170  22.0478698
  27.3961977  67.1369163   3.7783519  27.7760942  67.1548792   2.9934633
  26.6554573  67.5823152   3.6574366  27.3430815  67.2050938   3.6447087
  35.0247268  65.4451355   9.3659097  35.0241494  65.2900011  10.2243374
  34.8203448  66.2914342   9.3100483  34.9947046  65.5471975   9.4847037
  17.0864539  68.8691139  13.7817914  16.9086300  68.4167748  14.5072829
  16.7983561  69.6717300  13.9656391  17.0177492  68.9213697  13.9161417
  32.7488120  70.1248856  13.0195304  33.2441785  69.4071851  12.9799324
  31.9387896  69.8219654  12.9049791  32.7032013  69.9746503  12.9969030
  34.8139939  72.8752544  15.7072433  35.2395010  72.3526966  15.1542858
  34.4496859  73.4733381  15.1861056  34.8226541  72.8862771  15.5481443
  31.4018538  76.5886808  12.0373590  31.8729717  77.3027071  12.2063576
  31.7378717  75.9885558  12.5733460  31.5213653  76.6058272  12.1405966
  33.4895523  78.1988121  24.2165662  33.5992488  77.4096682  24.5722410
  33.8186420  78.1094058  23.4140001  33.5547929  78.0693974  24.1508053
  28.3188033  61.3614279  18.9931685  28.4515939  60.5645272  19.3212661
  28.7033186  61.8880682  19.5729961  28.3944362  61.3214195  19.1275188
  32.0392485  76.3804742  18.8001283  31.4913431  75.7562626  18.5321348
  32.5005513  76.5699014  18.0845362  32.0259694  76.3163792  18.6551714
  31.3920388  58.2844605  15.5912778  30.5866352  58.1742334  15.9080617
  31.2627124  58.3857060  14.7342644  31.2540521  58.2828275  15.5120819
  34.8486349  64.4490097  16.1852475  34.2649338  64.9499303  15.7730043
  35.1690643  63.9419653  15.5516799  34.8099524  64.4481932  16.0310983
  27.3881148  63.3630692   6.4611150  28.2096842  63.5329004   6.2192845
  26.9250799  63.5177952   5.7377448  27.4412310  63.4112424   6.3182794
  25.9776480  61.3573454  17.2409579  26.5220893  61.0164581  17.8313921
  26.0313416  62.2158915  17.3830864  26.0665599  61.4328713  17.3491452
  31.6050811  77.3855815  15.3310624  32.4249185  77.2418781  15.5926919
  31.3244889  78.0102014  15.8727062  31.6847554  77.4566167  15.4498564
  37.7615061  79.4723353  24.4661750  37.4468502  80.2422916  24.2031312
  37.4404993  78.9093609  23.8813977  37.6673980  79.5033622  24.3403100
  44.4379846  78.0091734  18.4119268  45.1833438  77.8201545  17.9982693
  44.0217151  78.5349972  17.8533124  44.4864821  78.0593880  18.2683841
  37.2459323  79.7009543  18.1347408  37.0542520  79.7164678  18.9846832
  38.0957919  79.8973218  18.1114063  37.3435045  79.7323895  18.2570703
  40.1563550  79.8965053  18.3419232  40.6136165  80.6289027  18.4692024
  40.2319879  79.4731518  19.1006487  40.2354520  79.9422291  18.4720308
  38.6217581  76.9411959  14.6105207  38.1056069  76.2492150  14.7356786
  38.0611510  77.6082736  14.5567806  38.4624094  76.9375216  14.6211273
  40.6909814  77.4804919  16.4398059  40.3041567  77.5053950  17.2211589
  40.2042751  76.9146597  15.9872576  40.5622323  77.4000670  16.4885963
  40.3566956  74.3671904  18.7308319  40.9860074  74.9032204  18.4529390
  40.5252819  74.2749263  19.5821885  40.4744750  74.4333267  18.8156847
  40.1580871  79.1543099  21.0034731  40.9854300  78.8828248  21.0593345
  40.1788717  79.9503941  21.3598549  40.2833721  79.2322853  21.0649914
  42.3820403  76.0838745  18.0852434  41.8860965  76.2802419  17.3944001
  43.1389465  76.4831413  17.9141236  42.4207228  76.1716479  17.9572571
  35.9324605  78.4851909  14.0561489  35.9722977  78.9861116  14.7696197
  35.1074270  78.5762303  13.7867412  35.8164131  78.5733725  14.1212028
  35.1622752  78.4921312  21.9891799  35.7875455  77.9483445  22.2621231
  34.7073232  78.0116229  21.4199589  35.1871012  78.3410793  21.9453393
  42.7313373  79.4621291  16.5487004  43.1568444  79.0093817  15.9370530
  42.1170366  78.9081362  16.8251791  42.7042018  79.3135267  16.4992029
  39.2920617  76.8799587  18.9931685  39.4248522  76.0830580  19.3212661
  39.6765770  77.4065990  19.5729961  39.3676946  76.8399503  19.1275188
  42.3652972  73.8029913  15.5912778  41.5598936  73.6927642  15.9080617
  42.2359707  73.9042368  14.7342644  42.2273105  73.8013583  15.5120819
  36.9509064  76.8758762  17.2409579  37.4953477  76.5349888  17.8313921
  37.0045999  77.7344223  17.3830864  37.0398183  76.9514021  17.3491452
  22.3343519  36.2990359   9.5906934  23.0410287  35.8042389   9.7193868
  22.5231455  36.7399440   8.8609592  22.4671425  36.2908709   9.5015979
  19.4735814  39.7217895   7.4821009  19.5619160  39.5344036   8.3299220
  19.9025526  39.0755325   7.0825856  19.5497916  39.5980903   7.5492761
  17.0406274  39.0049055   6.4638671  16.4777108  38.5921665   6.9878333
  17.8027297  38.9301961   6.8831815  17.0700722  38.9326456   6.6031672
  13.6481172  31.2322663   8.1955717  13.8201675  31.1228558   9.0440998
  14.1850529  31.8777069   7.9586909  13.7526176  31.3114665   8.2860813
  19.5855873  39.1526914  10.1464793  20.3696290  39.2657762  10.5120535
  19.3852468  38.3268051  10.3423479  19.6721899  39.0473634  10.2299179
  19.7426266  41.0637016   3.7931248  18.9441512  40.8236516   4.0505117
  20.1912278  41.1151409   4.5398296  19.6900878  41.0359407   3.9416173
  18.8027003  34.8097461  11.6851437  18.0099984  35.1240973  11.8704056
  18.9175930  35.0248930  10.8472221  18.7022414  34.8881298  11.5889771
  19.7310796  34.7117665   6.6236733  20.3049658  34.0744909   6.7785297
  19.6525600  34.7121747   5.7546391  19.8044031  34.6182776   6.5183144
  25.0530944  36.0826642   6.6321586  24.8169581  35.2514707   6.5133647
  25.6974173  36.0312250   7.2176431  25.1125615  35.9524330   6.7007480
  15.5100717  25.3730869  11.4001797  15.1954159  26.1430431  11.1371359
  15.1890650  24.8101125  10.8154023  15.4159637  25.4041137  11.2743146
  26.0767365  35.8671091   2.6949881  25.7713182  36.5999148   3.0563197
  25.3573580  35.4609021   2.4142667  25.9254707  35.9152824   2.7063018
  31.7769157  32.5064092   2.0218225  31.7093657  32.5260051   1.1520812
  31.7624819  33.3494419   2.2473896  31.7647913  32.6337827   1.9270702
  16.2150165  35.1147075   4.8424713  15.7161859  35.8262843   4.9209602
  17.0250389  35.4347742   4.8042875  16.2606272  35.2673924   4.8481282
  15.1417223  27.9728120  10.1387011  14.3316999  28.2785899  10.0276854
  15.6191910  28.6933702  10.2539595  15.0920702  28.1242721  10.1394082
  23.4278534  36.6758490   0.9802541  23.2892894  37.3739536   1.4851284
  22.6478532  36.5207146   0.6238723  23.2921761  36.7558656   1.0028815
  21.7656620  32.9754865   7.2324923  21.7604658  32.1034682   7.2367349
  22.4717613  33.1743034   6.7594379  21.8701624  32.8758739   7.1631958
  15.4927513  32.7031849   6.6038743  15.6370889  33.2833057   5.9681853
  15.8403161  33.0808146   7.3088598  15.5654974  32.8452553   6.6137738
  14.5655268  40.8934621   3.4699770  14.7144832  40.3337537   2.8173174
  15.3455270  40.9726622   3.8532289  14.7029361  40.8220186   3.4296719
  17.0908568  41.0649264   4.7484261  17.0152240  40.3958074   5.3035049
  17.0198428  41.7667052   5.2624927  17.0689175  41.0694171   4.9061109
  16.4800203  44.4717583   3.2062262  16.9696133  43.7728373   3.0237926
  15.9084435  44.1741453   3.7938319  16.4684733  44.3243807   3.2663302
  22.6767206  37.0379653  12.1589052  23.4902072  36.7664802  12.3194185
  22.5162173  36.7387193  11.3549248  22.7737155  36.9534579  12.0634458
  22.1178456  29.3302375   6.0367748  21.3055138  29.0228266   6.1180920
  22.5768391  28.8501375   6.6010460  22.0658841  29.2138868   6.1322342
  19.2131964  30.7362447  10.8196450  19.6831595  31.3604563  11.2064324
  19.2593844  30.0679422  11.3789665  19.2899840  30.7297127  10.9596521
  22.6888450  38.0985943   7.4311893  23.3268171  37.6046139   7.0974349
  22.0462542  38.0263344   6.8464120  22.6882677  38.0144952   7.2954248
  22.7442707  38.7905751   4.0717250  23.5335085  38.4394816   4.1919331
  22.9186305  39.6042140   3.8093883  22.8862989  38.8591609   4.0505118
  14.3571033  37.3445597   5.0814734  14.2491388  37.3547659   5.9476792
  14.5666815  38.1700377   4.8919687  14.3721144  37.4686672   5.1818825
  28.4935247  34.4264009   3.5413950  28.5518370  34.8750658   4.2873926
  27.8601714  34.8362822   3.1044030  28.4086542  34.5537744   3.5866498
  22.1334341  40.0467551  -0.0231304  21.9354030  40.5358365  -0.7175093
  21.5122053  40.2508792   0.5552829  22.0121906  40.1484089  -0.0408081
  24.0508143  33.6131703   5.5113944  24.7742342  33.1604230   5.3324964
  23.7858106  33.8936369   4.7286272  24.1189417  33.5882672   5.3692659
  15.8639875  33.9520164   9.0921831  15.0135505  34.0891879   9.2279476
  16.0268003  33.2183943   9.5369532  15.7623738  33.8634266   9.1777430
  26.4843457  32.5758114   4.0144494  27.0761298  33.2155365   4.0462692
  26.9202452  31.8781151   4.3036561  26.6361889  32.5676464   4.0625326
  18.3136847  36.9975486   4.6402388  17.8061938  37.5511333   5.0843018
  18.0163493  37.0583776   3.8221162  18.1941732  37.0881798   4.5850844
  17.5579332  41.9300045   1.5459395  17.3344987  41.1718874   1.9143421
  17.0689176  41.9598066   0.8239834  17.4522781  41.8222269   1.4936136
  19.6150322  36.0981777   9.0971328  19.5746177  35.4531454   8.5116484
  20.4273640  36.0418394   9.4096740  19.7293475  35.9940744   9.0568278
  19.1797101  27.6502958   8.0923342  19.7368531  27.4216768   7.4601807
  18.8558166  28.4108624   7.8158554  19.2143511  27.7286795   7.9579839
  16.8980218  30.7370611   9.0575349  17.6491545  31.0522288   9.3714903
  17.0902795  30.5349782   8.2309270  17.0371632  30.7537993   8.9818744
  23.5358179  34.2945367   2.6412480  23.9613251  33.7719789   2.0882905
  23.1715099  34.8926204   2.1201103  23.5444782  34.3055594   2.4821489
  13.1712259  42.5909585   1.4009825  13.4858818  43.4045973   1.4087607
  13.5805672  42.2059803   2.0691984  13.2780357  42.6538287   1.5013917
  22.2113763  39.6180945  11.1505709  22.3210729  38.8289505  11.5062456
  22.5404660  39.5286881  10.3480047  22.2766169  39.4886798  11.0848100
  20.7610725  37.7997565   5.7341330  20.2131671  37.1755449   5.4661395
  21.2223754  37.9891838   5.0185409  20.7477934  37.7356616   5.5891761
  20.3269051  38.8048638   2.2650671  21.1467425  38.6611604   2.5266966
  20.0463129  39.4294837   2.8067109  20.4065795  38.8758990   2.3838610
  36.7982702  46.4613490  -4.7706453  36.7676706  47.3158127  -4.5988183
  37.3964050  46.1608782  -4.2120309  36.8819860  46.5429986  -4.6631650
  29.9982387  45.5489141  -0.0153522  29.1420282  45.7097639   0.0355595
  30.0450040  44.6781205   0.0051539  29.8781498  45.4439943  -0.0047456
  33.3076103  51.8175667   9.5906934  34.0142870  51.3227697   9.7193868
  33.4964039  52.2584748   8.8609592  33.4404009  51.8094017   9.5015979
  32.8434208  47.6081185   2.6278129  33.3890168  48.2866271   2.6872099
  32.7851084  47.4668646   1.7679711  32.9150122  47.6873186   2.5090190
  25.9608282  55.0970251  -1.9853518  26.0618645  54.2870605  -1.6756390
  25.3650028  55.0027197  -2.6153840  25.8880821  54.9635279  -2.0327280
  25.8009022  60.0147840  -0.5838662  26.4446477  60.4561004  -0.1942504
  26.1265278  59.2101266  -0.6708403  25.9440851  59.9613035  -0.5393185
  21.4563414  43.2876268   0.5383123  20.8368446  42.6968915   0.3693138
  21.3547278  43.8787703  -0.0952554  21.3501090  43.2880351   0.4188113
  28.5531310  45.0275810  -5.1284414  29.2511474  45.2063937  -4.6362950
  28.8683642  44.5046149  -5.7514024  28.7026647  44.9769582  -5.1482404
  21.1832547  46.8328550   2.7826692  21.0591244  47.4190995   3.4176511
  21.8350832  46.3388745   3.0838967  21.2606197  46.8467354   2.9212622
  28.7419245  51.4146255  -5.1404622  29.1812881  50.8063355  -4.6949849
  28.5923908  51.0353628  -5.9119157  28.7840711  51.2684726  -5.1885455
  26.2090888  50.0090267   2.0614203  26.8539891  49.5162710   1.7425152
  26.4492665  50.1515053   2.8880282  26.3401473  49.9567709   2.1363737
  28.7476980  52.8545173   1.7121096  29.0300222  52.0596578   1.4907852
  29.4763140  53.3325760   1.7326157  28.8966543  52.8079770   1.6824111
  26.7258173  40.3968207  -1.0463139  26.3961503  40.8479350  -1.7159440
  26.0503175  40.3184370  -0.4990133  26.5768610  40.4519342  -1.0639916
  33.9334581  36.3853729  -2.8013528  33.6188022  37.0757208  -2.3693106
  33.4161523  36.3298512  -3.5028028  33.8099052  36.4788618  -2.8416579
  38.7295068  51.9604535  -1.3143073  37.8992771  52.1715178  -1.1509657
  38.6804320  51.1341589  -1.5900790  38.6001803  51.8694141  -1.3305708
  26.7904805  54.7908389   1.5204836  26.2731747  54.4315804   0.9166144
  27.4879197  54.2670563   1.5310902  26.8170387  54.6606077   1.4335095
  30.4468397  55.2403203   7.4821009  30.5351743  55.0529343   8.3299220
  30.8758110  54.5940633   7.0825856  30.5230500  55.1166211   7.5492761
  28.0138857  54.5234363   6.4638671  27.4509692  54.1106973   6.9878333
  28.7759881  54.4487269   6.8831815  28.0433306  54.4511764   6.6031672
  23.5734849  56.5132384  -0.9324698  24.2755428  55.9984373  -0.8751942
  23.4932332  56.8406536  -0.1277823  23.6658609  56.4846610  -0.8051906
  38.2249026  44.6074935   2.4807348  37.3877447  44.6777123   2.7154942
  38.1937257  44.6099430   1.6081650  38.0967309  44.6185162   2.3866896
  24.6213755  46.7507971   8.1955717  24.7934259  46.6413866   9.0440998
  25.1583113  47.3962377   7.9586909  24.7258759  46.8299973   8.2860813
  22.8985624  52.7038736  -1.4239090  23.7374523  52.9361669  -1.3765329
  22.9297393  51.8343048  -1.4932055  23.0267342  52.6095683  -1.4274446
  23.5238327  53.1239611   2.8774215  24.0636552  52.9810742   3.5477587
  22.8408273  53.5236362   3.2458241  23.5030481  53.1619282   3.0308637
  32.9479212  48.8030612  -1.9280761  33.7036727  49.2362126  -1.8891852
  33.0541536  48.1535382  -1.3546125  33.0749383  48.7708096  -1.8382735
  35.9859383  52.6303889  -1.1778358  35.5494615  52.6340632  -0.4219386
  35.6522299  53.3109388  -1.6098780  35.8722003  52.7316345  -1.1297525
  30.5588457  54.6712222  10.1464793  31.3428873  54.7843070  10.5120535
  30.3585051  53.8453359  10.3423479  30.6454482  54.5658941  10.2299179
  18.9275472  49.3439902   3.0308637  18.6613887  48.5279019   3.1899627
  18.9414036  49.3893058   2.1604152  18.8900194  49.2296807   2.9262119
  35.9056866  39.6717717   1.0651070  36.5482774  39.7415822   1.6512986
  36.1579887  39.0046940   0.5630612  36.0378998  39.5844066   1.0778350
  23.6774079  42.8818280   5.6775644  22.9845875  42.4115260   5.9236376
  24.2934406  42.6556585   6.2517351  23.6658608  42.7785412   5.7984797
  30.7158850  56.5822324   3.7931248  29.9174096  56.3421824   4.0505117
  31.1644862  56.6336717   4.5398296  30.6633461  56.5544715   3.9416173
  39.1203729  49.3484809  -2.2858720  39.7820163  48.7875478  -2.3862812
  38.4795141  48.8536840  -1.9606029  39.1232597  49.1921218  -2.2526380
  19.3368886  50.1298682   0.3120381  19.1544459  50.1045568  -0.5407327
  20.0718555  50.5997619   0.3509290  19.4182950  50.1960044   0.1918299
  35.4068560  50.3650192  -2.5446732  35.6424149  50.5095390  -3.3719881
  35.5558124  51.1292600  -2.1515218  35.4634363  50.4989246  -2.6083128
  22.4014637  46.8483684   6.8202490  23.1254610  46.8336715   7.3067384
  22.5030774  47.5579040   6.3224458  22.5232847  46.9508388   6.8181276
  29.7759587  50.3282769  11.6851437  28.9832568  50.6426281  11.8704056
  29.8908514  50.5434237  10.8472221  29.6754997  50.4066606  11.5889771
  32.4490906  47.0516760  -4.0253548  32.5437760  47.7906054  -3.5713922
  31.8249749  46.6234236  -3.5918983  32.3699936  47.0978081  -3.8945400
  30.7043380  50.2302973   6.6236733  31.2782241  49.5930217   6.7785297
  30.6258183  50.2307055   5.7546391  30.7776615  50.1368084   6.5183144
  19.3039796  47.0092182   0.4619447  19.8813299  46.8728633   1.1011693
  18.6053858  46.5527966   0.7165032  19.2860818  46.9214448   0.5941737
  26.0607098  48.6626238  -1.3242069  25.8026343  47.8297973  -1.3510770
  26.1155581  48.8883851  -2.1649569  26.0306876  48.5724009  -1.4521933
  31.1408148  40.7654689  -1.2237977  30.4364475  40.2763874  -1.0654057
  31.1893123  40.7777163  -2.0949532  31.0438200  40.6944337  -1.3298637
  25.0341810  46.2164000  -0.8377175  24.4591402  46.3756169  -0.2013214
  24.6577487  45.5799409  -1.3008724  24.8944623  46.1461813  -0.8122616
  28.7015099  44.6887350   4.0215204  28.3129532  44.2641567   3.3667395
  28.0369797  44.9369499   4.5292230  28.5462027  44.6626071   4.0003072
  38.3438368  44.4462354  -3.2036966  38.0874933  43.6342296  -3.3939083
  39.1867682  44.4539921  -3.4306779  38.4304394  44.3274352  -3.2652149
  32.5241461  38.3861978   1.5339188  32.9051972  37.7040149   1.9207062
  31.7204745  38.0971580   1.3514853  32.4617922  38.2429027   1.5643244
  36.0263528  51.6011950   6.6321586  35.7902165  50.7700015   6.5133647
  36.6706756  51.5497558   7.2176431  36.0858198  51.4709638   6.7007480
  25.6761946  52.3907472  -2.6535677  26.3135893  52.1519219  -2.1083884
  26.1017017  52.5944631  -3.3882516  25.8338112  52.3858482  -2.6818520
  20.3674588  54.6295808   1.2298627  20.4078733  54.9010659   0.4018406
  20.9269112  55.1537716   1.6456415  20.4557934  54.7471563   1.1690515
  26.4833301  40.8916177  11.4001797  26.1686742  41.6615739  11.1371359
  26.1623234  40.3286433  10.8154023  26.3892220  40.9226445  11.2743146
  37.0499948  51.3856399   2.6949881  36.7445765  52.1184456   3.0563197
  36.3306164  50.9794329   2.4142667  36.8987290  51.4338132   2.7063018
  28.0583418  52.8679894  -0.9741891  28.1322426  52.7055066  -0.1200041
  28.8752924  53.0570084  -1.2181409  28.1899776  52.8716637  -0.8843865
  42.7501740  48.0249400   2.0218225  42.6826241  48.0445359   1.1520812
  42.7357403  48.8679727   2.2473896  42.7380497  48.1523134   1.9270702
  33.1598087  39.4284558   5.3459315  33.9051679  39.2394368   4.9322740
  32.7435391  39.9542795   4.7873171  33.2083061  39.4786703   5.2023888
  40.5360358  46.7993786   0.2964820  41.0868279  46.1661855   0.5361912
  40.5204473  47.3309179   0.9880324  40.6145554  46.7842734   0.4343678
  27.1882748  50.6332383   4.8424713  26.6894442  51.3448151   4.9209602
  27.9982973  50.9533050   4.8042875  27.2338855  50.7859232   4.8481282
  23.4510866  49.8955336  -0.9112566  23.1624115  49.2692808  -0.3766839
  24.3194214  49.8375624  -0.8447886  23.5371118  49.7942881  -0.8221611
  34.2388764  45.0390120  -0.5930584  33.8953530  44.3180455  -0.2423335
  34.3381806  44.8303971  -1.4352226  34.2030807  44.9014323  -0.6658904
  26.1149806  43.4913428  10.1387011  25.3049582  43.7971207  10.0276854
  26.5924493  44.2119010  10.2539595  26.0653285  43.6428029  10.1394082
  24.9741366  52.7059149   0.3869914  24.4522120  52.8459440   1.0721779
  25.3615386  51.9469813   0.5772032  24.9545067  52.6144673   0.5170991
  26.4007692  49.7363168  -4.2148595  26.2050474  50.3437902  -4.8088292
  26.6242037  49.0431112  -4.6956921  26.4042333  49.7240693  -4.3732514
  24.7986222  46.6217906  -4.0967726  25.5208874  46.7859064  -4.5563920
  24.3194214  47.3427570  -4.2028386  24.8349952  46.7516135  -4.1802112
  32.7579729  42.9581704   1.2828959  31.9190830  42.9842983   1.0467222
  32.8284097  43.6052440   1.8634305  32.6448123  43.0577830   1.3338076
  22.4493838  49.0275978   5.0086414  22.9614935  49.3060231   4.3595173
  22.1630181  49.7665272   5.3749227  22.4828702  49.1778332   4.9676292
  31.2049008  39.8567081  -3.9843425  31.9075360  39.6574830  -4.4623467
  30.9393196  39.0843024  -3.6774582  31.2695640  39.7130047  -4.0097984
  36.6337253  48.1649691  -1.4309799  36.5471228  48.3205117  -0.5775021
  36.1787733  48.8087767  -1.8050394  36.5540510  48.2825446  -1.3602693
  25.9677564  41.1202367   5.0687455  25.7760761  41.1357501   5.9186879
  26.8176160  41.3166041   5.0454110  26.0653286  41.1516718   5.1910750
  20.3524477  43.6493348   3.0471272  20.2109969  42.7977289   3.1715780
  20.6365040  43.6922009   2.2233478  20.3732323  43.5293098   2.9438896
  30.5063069  45.4860438  -2.8084240  30.2597783  45.4056189  -1.9747451
  30.8348192  44.7013906  -3.0021712  30.5184313  45.3586704  -2.7136717
  34.4011118  52.1943798   0.9802541  34.2625477  52.8924843   1.4851284
  33.6211116  52.0392454   0.6238723  34.2654345  52.2743964   1.0028815
  32.7389203  48.4940173   7.2324923  32.7337242  47.6219990   7.2367349
  33.4450197  48.6928342   6.7594379  32.8434207  48.3944047   7.1631958
  26.4660096  48.2217157   6.6038743  26.6103472  48.8018365   5.9681853
  26.8135745  48.5993454   7.3088598  26.5387558  48.3637861   6.6137738
  28.6380014  47.4207325   4.3863875  27.8903328  47.6138340   3.9812153
  28.7921539  46.5952545   4.1487996  28.5502441  47.3272437   4.2909281
  25.5387851  56.4119929   3.4699770  25.6877415  55.8522845   2.8173174
  26.3187854  56.4911930   3.8532289  25.6761945  56.3405494   3.4296719
  28.0641152  56.5834572   4.7484261  27.9884823  55.9143382   5.3035049
  27.9931011  57.2852360   5.2624927  28.0421759  56.5879479   4.9061109
  28.8781791  41.3157876   5.2759278  29.3354405  42.0481850   5.4032071
  28.9538120  40.8924341   6.0346534  28.9572761  41.3615114   5.4060355
  21.1214782  41.5623696   6.3648722  20.5856972  40.9504054   6.6809489
  21.1832547  42.1371832   7.0182389  21.0510415  41.5570623   6.5084149
  33.3509117  34.4947751  -0.8546879  33.4692685  34.9524214  -1.5879576
  33.1771292  33.6893012  -1.1410661  33.3428288  34.4441523  -1.0045945
  26.7564169  43.3059980   2.1201102  25.9660244  43.1251440   2.4418438
  27.1524792  42.5286932   2.1031397  26.6981045  43.1647441   2.1653651
  32.1407855  50.9402410  -0.1539452  31.4652857  50.7087642   0.3473935
  32.1500231  50.3323593  -0.7797347  32.0426360  50.8161335  -0.1723299
  29.2701999  45.7820239   6.6024601  29.2061140  46.6430195   6.4744738
  29.4099187  45.4652232   5.8020153  29.2817469  45.8620406   6.4652814
  27.9521093  48.4752378   0.7440804  27.5283342  48.6756877   0.0079823
  27.7765948  47.6281226   0.8565104  27.8631974  48.3801160   0.6514494
  27.4532786  59.9902891   3.2062262  27.9428717  59.2913681   3.0237926
  26.8817019  59.6926761   3.7938319  27.4417316  59.8429115   3.2663302
  23.2403538  48.9704430  -3.8231223  23.3968157  48.9051233  -2.9675231
  23.5804131  49.7452982  -4.0352544  23.3136773  49.0753628  -3.7276629
  29.7782682  48.3462313  -4.9537860  30.3198228  47.8432694  -4.4899239
  30.0929242  48.2927508  -5.7648375  29.9047080  48.2641734  -5.0054048
  33.6499790  52.5564961  12.1589052  34.4634655  52.2850110  12.3194185
  33.4894756  52.2572501  11.3549248  33.7469738  52.4719887  12.0634458
  30.9271952  43.2398618   5.0984440  31.1413921  42.6009532   4.5447794
  30.3105851  43.6844442   4.6692302  30.8677281  43.2108762   4.9534872
  19.8137799  46.1539380  -3.5070456  20.1936764  46.5723925  -4.1710189
  19.2393164  46.7352836  -3.2001613  19.7849124  46.3017239  -3.5593715
  33.0911040  44.8487683   6.0367748  32.2787722  44.5413573   6.1180920
  33.5500974  44.3686683   6.6010460  33.0391425  44.7324175   6.1322342
  30.3186681  36.3498554   0.0871783  29.4480238  36.3237275   0.0405093
  30.5727022  36.1775746  -0.7302371  30.2280241  36.3208697  -0.0408080
  30.1864547  46.2547755  10.8196450  30.6564179  46.8789871  11.2064324
  30.2326428  45.5864730  11.3789665  30.2632423  46.2482435  10.9596521
  27.3435821  38.3604782   1.5445254  26.8274310  37.6684973   1.6696833
  26.7829750  39.0275559   1.4907852  27.1842334  38.3568040   1.5551320
  29.4128054  38.8997742   3.3738106  29.0259808  38.9246774   4.1551636
  28.9260992  38.3339421   2.9212623  29.2840563  38.8193493   3.4226010
  33.6621034  53.6171251   7.4311893  34.3000754  53.1231447   7.0974349
  33.0195125  53.5448651   6.8464120  33.6615260  53.5330260   7.2954248
  35.3878034  45.4660397   1.9977808  34.9605642  45.3786746   1.2425908
  34.7504087  45.5738172   2.5832652  35.2307641  45.4693057   1.9723250
  29.0785196  35.7864728   5.6648366  29.7078314  36.3225028   5.3869436
  29.2471059  35.6942086   6.5161932  29.1962991  35.8526090   5.7496894
  28.8799111  40.5735922   7.9374778  29.7072540  40.3021071   7.9933392
  28.9006957  41.3696764   8.2938596  29.0051961  40.6515676   7.9989961
  33.7175290  54.3091059   4.0717250  34.5067669  53.9580124   4.1919331
  33.8918888  55.1227448   3.8093883  33.8595572  54.3776916   4.0505118
  23.4568601  47.7199785   1.1245038  22.6156607  47.6203659   1.3323932
  23.6658609  48.4895265   1.4759359  23.3633293  47.8191828   1.2072353
  20.9344168  45.3419322  -1.0470211  20.5400866  45.4162334  -1.8220101
  20.3784285  45.7277268  -0.4961849  20.7946980  45.4101097  -1.0802551
  32.5709115  38.3200616  -1.3666332  32.7758708  38.2522924  -0.5209335
  32.2435539  39.1259437  -1.4345155  32.5524363  38.4286556  -1.2506677
  27.2685266  45.6481184   0.3742636  26.9648403  45.0937172   0.9753044
  26.5664687  45.8273394  -0.1129330  27.1201476  45.5925967   0.3912342
  25.3303617  52.8630905   5.0814734  25.2223972  52.8732967   5.9476792
  25.5399398  53.6885685   4.8919687  25.3453728  52.9871980   5.1818825
  35.8242802  38.8732380  -1.8863567  35.2117116  39.3602782  -1.5009835
  35.9206977  38.1975871  -1.3425915  35.7480700  38.8450689  -1.7484708
  23.3477409  50.1143547   2.5436671  22.7565342  50.7553046   2.5139686
  24.1098432  50.5381165   2.5167971  23.3725669  50.2719386   2.5351818
  23.7438032  41.2745545   3.2104689  24.2039513  41.3484475   3.9479813
  23.7894138  42.0726799   2.8604510  23.8188587  41.4039692   3.2677445
  25.3921381  41.9412240   7.7776716  25.0006946  41.2945587   8.2132494
  25.5607244  42.5323675   8.3970971  25.3592292  41.9326508   7.9339422
  39.4667830  49.9449317   3.5413950  39.5250954  50.3935966   4.2873926
  38.8334298  50.3548130   3.1044030  39.3819125  50.0723052   3.5866498
  27.1674903  47.3337756  -5.6821060  27.9116948  47.7212032  -5.4438110
  27.3135600  46.4895181  -5.5180572  27.2985488  47.2668229  -5.6227090
  29.0854479  39.1288015  -0.6489199  28.2390524  39.3010822  -0.7747849
  29.0825611  38.3237358  -0.3123370  28.9601629  39.0349044  -0.6178072
  30.1552779  42.9063229   0.2172859  29.6812733  42.3804991   0.7278170
  30.5270915  42.3592702  -0.3512279  30.1402668  42.7479226   0.2088007
  20.5325809  44.9034736   5.5856405  21.3951422  44.8030445   5.4993735
  20.2017592  44.3229445   5.0241977  20.6111006  44.8026362   5.4901811
  36.4189510  47.9665605   1.6279640  36.1787733  47.1272020   1.6322066
  36.8981517  48.0465771   2.3520413  36.4541693  47.8547004   1.7354442
  38.4194697  44.7467062  -0.4191101  38.1804467  44.7062896  -1.2570316
  38.5828598  45.5938214  -0.2925380  38.4085000  44.8659147  -0.5237619
  35.0240727  49.1317011   5.5113944  35.7474926  48.6789538   5.3324964
  34.7590689  49.4121677   4.7286272  35.0922000  49.1067980   5.3692659
  23.8927595  43.7277185   2.2466823  23.2680666  43.7395577   1.6392776
  23.5573190  44.2037360   2.8958063  23.7513087  43.7995702   2.2523392
  20.6053271  51.7877645   3.6870588  20.0753195  51.0970084   3.7365562
  20.8778364  51.7787830   2.8583296  20.5677993  51.6844777   3.5718004
  30.8059516  49.2300889   3.6608959  30.1916510  48.6858940   3.9557594
  31.3226801  48.7165126   3.1814775  30.7915179  49.0737299   3.6333188
  30.0455814  50.3005159   1.3953258  29.6183422  49.6754878   0.9618693
  30.0380758  50.0180081   2.2212265  29.9814955  50.1657940   1.4533085
  23.1618341  45.3370333   4.4641692  23.3211827  44.5813657   4.8693414
  22.9811234  45.8861272   5.1182429  23.1583700  45.3064146   4.6204398
  31.1038644  37.5031568   5.0192481  30.6079205  37.6995242   4.3284048
  31.8607706  37.9024236   4.8481283  31.1425468  37.5909302   4.8912618
  28.3741523  41.1773914   1.6095792  28.3984010  40.6434026   0.9208572
  28.6252997  40.6691223   2.2721382  28.4151442  41.0234818   1.6060436
  24.6542846  39.9044732   0.9901536  24.6941217  40.4053939   1.7036244
  23.8292510  39.9955126   0.7207459  24.5382371  39.9926549   1.0552074
  26.8372458  49.4705472   9.0921831  25.9868089  49.6077187   9.2279476
  27.0000586  48.7369251   9.5369532  26.7356322  49.3819573   9.1777430
  26.0757209  46.4205242   3.2875435  25.2449139  46.5879060   3.0810683
  26.0208726  46.0441193   4.0724320  25.9446624  46.3894973   3.3723963
  23.8840992  39.9114135   8.9231846  24.5093696  39.3676268   9.1961278
  23.4291472  39.4309053   8.3539636  23.9089253  39.7603616   8.8793440
  37.4576041  48.0943422   4.0144494  38.0493881  48.7340673   4.0462692
  37.8935035  47.3966459   4.3036561  37.6094472  48.0861772   4.0625326
  29.2869431  52.5160794   4.6402388  28.7794522  53.0696641   5.0843018
  28.9896077  52.5769084   3.8221162  29.1674316  52.6067106   4.5850844
  31.4531613  40.8814114   3.4827051  31.8786685  40.4286640   2.8710577
  30.8388606  40.3274185   3.7591838  31.4260258  40.7328090   3.4332076
  34.4825182  45.3088641  -3.6852364  33.8116372  45.8518343  -3.8139298
  35.1764933  45.7783496  -3.9270669  34.4854050  45.4586912  -3.7396836
  28.5311916  57.4485353   1.5459395  28.3077570  56.6904182   1.9143421
  28.0421759  57.4783374   0.8239834  28.4255365  57.3407577   1.4936136
  34.6453310  41.7644524  -0.7761990  34.9980920  41.3374247  -0.1016192
  33.7868111  41.6795368  -0.6460914  34.5702754  41.6889265  -0.6566980
  23.3436995  44.3952044  -2.7179144  22.6248984  44.8116177  -2.4506280
  23.7149357  44.9606283  -3.2687506  23.2928927  44.5401325  -2.7596337
  32.6436576  45.0279893   3.1722852  32.6234503  44.8463188   4.0257631
  32.6915776  45.8991911   3.1482435  32.6471217  45.1296431   3.2946147
  30.5882905  51.6167085   9.0971328  30.5478760  50.9716762   8.5116484
  31.4006224  51.5603702   9.4096740  30.7026059  51.5126052   9.0568278
  27.1790373  57.6685811  -1.0003521  26.7650772  57.0059941  -1.3899679
  27.8637747  57.8163670  -1.5207827  27.2188745  57.5926469  -1.1347024
  30.5455667  56.8275896  -0.2479904  30.1471950  56.9378166  -1.0159084
  29.9306887  57.0357962   0.3346656  30.3954556  56.8749464  -0.2748605
  36.0777370  36.8862936   0.1522322  35.5708235  36.1792076   0.0843500
  36.8744804  36.5556125   0.2823399  36.1204609  36.7336088   0.1621317
  31.9941386  43.3929548  -3.9504014  31.7655079  43.4162250  -4.7925656
  32.2539462  42.5687015  -3.8309004  31.9987574  43.2745628  -4.0578817
  26.2760614  45.2464021   5.6521086  25.7639517  44.6385204   6.0106117
  26.1040110  45.9620614   6.1195062  26.1750251  45.2627321   5.7737310
  21.1226329  43.6901597   8.3023448  20.9528919  44.3502972   7.7571654
  20.6792279  43.9008158   9.0235937  21.0325662  43.8187579   8.3285077
  25.0486148  41.9306095  -2.6549819  25.5243514  42.2923175  -3.2899637
  24.5474748  42.5862562  -2.3749676  25.0451507  42.0800283  -2.7073078
  30.1529684  43.1688266   8.0923342  30.7101115  42.9402076   7.4601807
  29.8290750  43.9293932   7.8158554  30.1876095  43.2472103   7.9579839
  18.0228393  46.5948462   3.5611938  17.4755113  45.9249108   3.6792806
  18.8120772  46.2278310   3.6255405  18.0580577  46.4413449   3.5880638
  27.8712802  46.2555919   9.0575349  28.6224129  46.5707596   9.3714903
  28.0635378  46.0535090   8.2309270  28.0104216  46.2723301   8.9818744
  34.7198092  42.3829486  -3.7000856  34.7192318  42.2278142  -2.8416580
  34.5154272  43.2292473  -3.7559470  34.6897870  42.4850106  -3.5812917
  16.7815363  45.8069270   0.7157961  16.6037124  45.3545879   1.4412876
  16.4934385  46.6095432   0.8996438  16.7128316  45.8591828   0.8501464
  32.4438944  47.0626987  -0.0464649  32.9392609  46.3449983  -0.0860629
  31.6338720  46.7597785  -0.1610162  32.3982837  46.9124634  -0.0690923
  34.5090763  49.8130675   2.6412480  34.9345834  49.2905097   2.0882905
  34.1447683  50.4111512   2.1201103  34.5177365  49.8240902   2.4821489
  24.1444843  58.1094892   1.4009825  24.4591402  58.9231281   1.4087607
  24.5538256  57.7245111   2.0691984  24.2512941  58.1723595   1.5013917
  31.0969362  53.5264939  -1.0286363  31.5680540  54.2405202  -0.8596378
  31.4329541  52.9263689  -0.4926493  31.2164477  53.5436404  -0.9253987
  33.1846347  55.1366253  11.1505709  33.2943312  54.3474813  11.5062456
  33.5137243  55.0472189  10.3480047  33.2498753  55.0072106  11.0848100
  28.0138857  38.2992410   5.9271732  28.1466763  37.5023403   6.2552708
  28.3984010  38.8258813   6.5070008  28.0895186  38.2592327   6.0615235
  31.7343309  53.3182873   5.7341330  31.1864255  52.6940757   5.4661395
  32.1956337  53.5077145   5.0185409  31.7210518  53.2541924   5.5891761
  31.0871212  35.2222736   2.5252825  30.2817176  35.1120466   2.8420664
  30.9577948  35.3235192   1.6682691  30.9491345  35.2206406   2.4460866
  34.5437173  41.3868228   3.1192522  33.9600162  41.8877434   2.7070090
  34.8641467  40.8797784   2.4856845  34.5050348  41.3860063   2.9651029
  25.6727304  38.2951585   4.1749626  26.2171717  37.9542712   4.7653967
  25.7264240  39.1537046   4.3170910  25.7616423  38.3706844   4.2831499
  21.4857863  52.0568001   1.0488434  22.0902720  52.0163835   0.4202254
  21.2785175  52.9039153   1.0792489  21.5446760  52.1756003   0.9604550
  31.3001635  54.3233946   2.2650671  32.1200009  54.1796912   2.5266966
  31.0195713  54.9480145   2.8067109  31.3798378  54.3944298   2.3838610
  32.1565131  62.3513858   2.7826692  32.0323828  62.9376303   3.4176511
  32.8083415  61.8574053   3.0838967  32.2338780  62.3652662   2.9212622
  35.5946339  62.2693279   8.1955717  35.7666842  62.1599174   9.0440998
  36.1315696  62.9147684   7.9586909  35.6991343  62.3485281   8.2860813
  41.5321040  70.1897530  10.1464793  42.3161457  70.3028378  10.5120535
  41.3317635  69.3638667  10.3423479  41.6187066  70.0844249  10.2299179
  34.6506662  58.4003588   5.6775644  33.9578459  57.9300568   5.9236376
  35.2666989  58.1741893   6.2517351  34.6391192  58.2970720   5.7984797
  33.3747221  62.3668992   6.8202490  34.0987193  62.3522023   7.3067384
  33.4763358  63.0764348   6.3224458  33.4965430  62.4693696   6.8181276
  40.7492170  65.8468077  11.6851437  39.9565151  66.1611589  11.8704056
  40.8641098  66.0619545  10.8472221  40.6487581  65.9251914  11.5889771
  39.6747683  60.2072658   4.0215204  39.2862115  59.7826875   3.3667395
  39.0102381  60.4554807   4.5292230  39.5194610  60.1811379   4.0003072
  43.4974044  53.9047286   1.5339188  43.8784556  53.2225457   1.9207062
  42.6937329  53.6156888   1.3514853  43.4350506  53.7614335   1.5643244
  37.4565885  56.4101485  11.4001797  37.1419326  57.1801047  11.1371359
  37.1355817  55.8471741  10.8154023  37.3624804  56.4411753  11.2743146
  44.1330670  54.9469865   5.3459315  44.8784262  54.7579676   4.9322740
  43.7167975  55.4728103   4.7873171  44.1815645  54.9972011   5.2023888
  37.0882390  59.0098736  10.1387011  36.2782166  59.3156515  10.0276854
  37.5657077  59.7304318  10.2539595  37.0385869  59.1613337  10.1394082
  33.4226422  64.5461286   5.0086414  33.9347519  64.8245539   4.3595173
  33.1362765  65.2850580   5.3749227  33.4561285  64.6963640   4.9676292
  36.9410147  56.6387675   5.0687455  36.7493344  56.6542809   5.9186879
  37.7908743  56.8351349   5.0454110  37.0385869  56.6702026   5.1910750
  31.3257060  59.1678656   3.0471272  31.1842552  58.3162597   3.1715780
  31.6097624  59.2107317   2.2233478  31.3464906  59.0478406   2.9438896
  37.4392680  63.7402465   6.6038743  37.5836056  64.3203673   5.9681853
  37.7868329  64.1178762   7.3088598  37.5120141  63.8823169   6.6137738
  39.8514374  56.8343184   5.2759278  40.3086989  57.5667158   5.4032071
  39.9270703  56.4109649   6.0346534  39.9305344  56.8800422   5.4060355
  32.0947366  57.0809004   6.3648722  31.5589555  56.4689362   6.6809489
  32.1565130  57.6557140   7.0182389  32.0242998  57.0755931   6.5084149
  37.7296752  58.8245288   2.1201102  36.9392827  58.6436748   2.4418438
  38.1257375  58.0472240   2.1031397  37.6713629  58.6832749   2.1653651
  40.2434583  61.3005547   6.6024601  40.1793724  62.1615503   6.4744738
  40.3831770  60.9837540   5.8020153  40.2550053  61.3805714   6.4652814
  44.6232373  68.0750269  12.1589052  45.4367239  67.8035418  12.3194185
  44.4627340  67.7757809  11.3549248  44.7202322  67.9905195  12.0634458
  41.9004535  58.7583926   5.0984440  42.1146505  58.1194840   4.5447794
  41.2838435  59.2029750   4.6692302  41.8409865  58.7294070   4.9534872
  44.0643623  60.3672991   6.0367748  43.2520305  60.0598881   6.1180920
  44.5233558  59.8871991   6.6010460  44.0124008  60.2509483   6.1322342
  41.1597131  61.7733062  10.8196450  41.6296762  62.3975179  11.2064324
  41.2059011  61.1050038  11.3789665  41.2365007  61.7667743  10.9596521
  38.3168405  53.8790090   1.5445254  37.8006893  53.1870281   1.6696833
  37.7562333  54.5460867   1.4907852  38.1574918  53.8753348   1.5551320
  40.3860638  54.4183050   3.3738106  39.9992391  54.4432081   4.1551636
  39.8993575  53.8524729   2.9212623  40.2573147  54.3378801   3.4226010
  40.0517780  51.3050035   5.6648366  40.6810898  51.8410336   5.3869436
  40.2203642  51.2127394   6.5161932  40.1695574  51.3711398   5.7496894
  39.8531695  56.0921230   7.9374778  40.6805124  55.8206379   7.9933392
  39.8739541  56.8882072   8.2938596  39.9784545  56.1700984   7.9989961
  34.7170615  56.7930853   3.2104689  35.1772097  56.8669782   3.9479813
  34.7626722  57.5912107   2.8604510  34.7921170  56.9225000   3.2677445
  36.3653965  57.4597548   7.7776716  35.9739530  56.8130895   8.2132494
  36.5339828  58.0508983   8.3970971  36.3324875  57.4511816   7.9339422
  31.5058393  60.4220044   5.5856405  32.3684006  60.3215753   5.4993735
  31.1750176  59.8414753   5.0241977  31.5843589  60.3211670   5.4901811
  34.8660179  59.2462493   2.2466823  34.2413249  59.2580885   1.6392776
  34.5305774  59.7222668   2.8958063  34.7245671  59.3181010   2.2523392
  34.1350924  60.8555640   4.4641692  34.2944411  60.0998965   4.8693414
  33.9543818  61.4046580   5.1182429  34.1316283  60.8249454   4.6204398
  42.0771227  53.0216876   5.0192481  41.5811789  53.2180550   4.3284048
  42.8340289  53.4209544   4.8481283  42.1158052  53.1094610   4.8912618
  35.6275429  55.4230040   0.9901536  35.6673801  55.9239247   1.7036244
  34.8025094  55.5140434   0.7207459  35.5114955  55.5111857   1.0552074
  37.8105042  64.9890780   9.0921831  36.9600673  65.1262494   9.2279476
  37.9733170  64.2554558   9.5369532  37.7088906  64.9004881   9.1777430
  34.8573576  55.4299443   8.9231846  35.4826279  54.8861576   9.1961278
  34.4024056  54.9494361   8.3539636  34.8821836  55.2788924   8.8793440
  42.4264197  56.3999422   3.4827051  42.8519268  55.9471948   2.8710577
  41.8121190  55.8459493   3.7591838  42.3992842  56.2513398   3.4332076
  41.5615489  67.1352393   9.0971328  41.5211344  66.4902070   8.5116484
  42.3738807  67.0789010   9.4096740  41.6758643  67.0311360   9.0568278
  37.2493198  60.7649329   5.6521086  36.7372101  60.1570512   6.0106117
  37.0772694  61.4805922   6.1195062  37.1482835  60.7812629   5.7737310
  32.0958912  59.2086905   8.3023448  31.9261503  59.8688280   7.7571654
  31.6524862  59.4193466   9.0235937  32.0058246  59.3372887   8.3285077
  41.1262268  58.6873574   8.0923342  41.6833698  58.4587384   7.4601807
  40.8023333  59.4479240   7.8158554  41.1608678  58.7657411   7.9579839
  28.9960977  62.1133770   3.5611938  28.4487696  61.4434416   3.6792806
  29.7853355  61.7463618   3.6255405  29.0313161  61.9598757   3.5880638
  38.8445385  61.7741227   9.0575349  39.5956712  62.0892904   9.3714903
  39.0367962  61.5720398   8.2309270  38.9836799  61.7908609   8.9818744
  27.7547946  61.3254578   0.7157961  27.5769708  60.8731187   1.4412876
  27.4666969  62.1280739   0.8996438  27.6860900  61.3777136   0.8501464
  38.9871441  53.8177718   5.9271732  39.1199346  53.0208711   6.2552708
  39.3716594  54.3444121   6.5070008  39.0627770  53.7777634   6.0615235
  42.0603796  50.7408044   2.5252825  41.2549760  50.6305774   2.8420664
  41.9310531  50.8420500   1.6682691  41.9223929  50.7391714   2.4460866
  36.6459888  53.8136893   4.1749626  37.1904301  53.4728020   4.7653967
  36.6996823  54.6722354   4.3170910  36.7349007  53.8892152   4.2831499
  35.2897163  39.2071410  -4.8704237  35.4617666  39.0977305  -4.0218955
  35.8266520  39.8525816  -5.1073044  35.3942167  39.2863412  -4.7799140
  41.2271864  47.1275661  -2.9195160  42.0112281  47.2406509  -2.5539418
  41.0268459  46.3016798  -2.7236475  41.3137890  47.0222381  -2.8360774
  40.4442994  42.7846208  -1.3808517  39.6515975  43.0989720  -1.1955897
  40.5591922  42.9997677  -2.2187732  40.3438405  42.8630045  -1.4770182
  37.1516709  33.3479616  -1.6658157  36.8370150  34.1179178  -1.9288594
  36.8306641  32.7849872  -2.2505930  37.0575628  33.3789884  -1.7916807
  36.7833214  35.9476867  -2.9272942  35.9732990  36.2534646  -3.0383100
  37.2607901  36.6682449  -2.8120358  36.7336693  36.0991468  -2.9265871
  37.1343504  40.6780596  -6.4621210  37.2786880  41.2581804  -7.0978100
  37.4819153  41.0556893  -5.7571355  37.2070965  40.8201300  -6.4522215
  39.9385407  38.2383678  -6.4635352  39.8744548  39.0993635  -6.5915215
  40.0782594  37.9215671  -7.2639801  39.9500877  38.3183845  -6.6007139
  44.3183197  45.0128400  -0.9070901  45.1318063  44.7413549  -0.7465768
  44.1578164  44.7135940  -1.7110705  44.4153146  44.9283326  -1.0025495
  43.7594447  37.3051122  -7.0292206  42.9471129  36.9977013  -6.9479033
  44.2184382  36.8250122  -6.4649493  43.7074832  37.1887615  -6.9337611
  40.8547955  38.7111194  -2.2463503  41.3247586  39.3353310  -1.8595629
  40.9009835  38.0428169  -1.6870289  40.9315831  38.7045874  -2.1063432
  37.5055866  41.9268911  -3.9738123  36.6551496  42.0640626  -3.8380478
  37.6683994  41.1932690  -3.5290421  37.4039729  41.8383013  -3.8882523
  41.2566313  44.0730524  -3.9688625  41.2162168  43.4280201  -4.5543469
  42.0689631  44.0167141  -3.6563213  41.3709466  43.9689491  -4.0091676
  40.8213092  35.6251705  -4.9736612  41.3784522  35.3965515  -5.6058146
  40.4974157  36.3857371  -5.2501399  40.8559502  35.7035542  -5.1080115
  38.5396209  38.7119358  -4.0084605  39.2907536  39.0271035  -3.6945050
  38.7318786  38.5098529  -4.8350683  38.6787623  38.7286740  -4.0841209
  79.2038577  79.2038577  79.2038577 109.4712190 109.4712190 109.4712190
